V -t * -v 1.0a5 -a 0
A -t * -n 1 -p 0 -o 0x7fffffff -c 30 -a 1
A -t * -h 1 -m 1073741823 -s 0
c -t * -i 0 -n red
c -t * -i 1 -n blue
n -t * -a 4 -s 4 -S UP -v circle -c black -i black
n -t * -a 0 -s 0 -S UP -v circle -c black -i black
n -t * -a 5 -s 5 -S UP -v circle -c black -i black
n -t * -a 1 -s 1 -S UP -v circle -c black -i black
n -t * -a 2 -s 2 -S UP -v circle -c black -i black
n -t * -a 3 -s 3 -S UP -v circle -c black -i black
l -t * -s 0 -d 2 -S UP -r 100000000 -D 0.001 -c black
l -t * -s 1 -d 2 -S UP -r 100000000 -D 0.001 -c black
l -t * -s 2 -d 3 -S UP -r 5000 -D 0.001 -c black
l -t * -s 3 -d 4 -S UP -r 100000000 -D 0.001 -c black
l -t * -s 3 -d 5 -S UP -r 100000000 -D 0.001 -c black
+ -t 0.1 -s 0 -d 2 -p ping -e 64 -c 0 -i 0 -a 0 -x {0.0 4.0 -1 ------- null}
- -t 0.1 -s 0 -d 2 -p ping -e 64 -c 0 -i 0 -a 0 -x {0.0 4.0 -1 ------- null}
h -t 0.1 -s 0 -d 2 -p ping -e 64 -c 0 -i 0 -a 0 -x {0.0 4.0 -1 ------- null}
+ -t 0.1 -s 5 -d 3 -p ping -e 64 -c 1 -i 1 -a 1 -x {5.0 1.0 -1 ------- null}
- -t 0.1 -s 5 -d 3 -p ping -e 64 -c 1 -i 1 -a 1 -x {5.0 1.0 -1 ------- null}
h -t 0.1 -s 5 -d 3 -p ping -e 64 -c 1 -i 1 -a 1 -x {5.0 1.0 -1 ------- null}
r -t 0.10100512 -s 0 -d 2 -p ping -e 64 -c 0 -i 0 -a 0 -x {0.0 4.0 -1 ------- null}
+ -t 0.10100512 -s 2 -d 3 -p ping -e 64 -c 0 -i 0 -a 0 -x {0.0 4.0 -1 ------- null}
- -t 0.10100512 -s 2 -d 3 -p ping -e 64 -c 0 -i 0 -a 0 -x {0.0 4.0 -1 ------- null}
h -t 0.10100512 -s 2 -d 3 -p ping -e 64 -c 0 -i 0 -a 0 -x {0.0 4.0 -1 ------- null}
r -t 0.10100512 -s 5 -d 3 -p ping -e 64 -c 1 -i 1 -a 1 -x {5.0 1.0 -1 ------- null}
+ -t 0.10100512 -s 3 -d 2 -p ping -e 64 -c 1 -i 1 -a 1 -x {5.0 1.0 -1 ------- null}
- -t 0.10100512 -s 3 -d 2 -p ping -e 64 -c 1 -i 1 -a 1 -x {5.0 1.0 -1 ------- null}
h -t 0.10100512 -s 3 -d 2 -p ping -e 64 -c 1 -i 1 -a 1 -x {5.0 1.0 -1 ------- null}
+ -t 0.2 -s 0 -d 2 -p ping -e 64 -c 0 -i 2 -a 0 -x {0.0 4.0 -1 ------- null}
- -t 0.2 -s 0 -d 2 -p ping -e 64 -c 0 -i 2 -a 0 -x {0.0 4.0 -1 ------- null}
h -t 0.2 -s 0 -d 2 -p ping -e 64 -c 0 -i 2 -a 0 -x {0.0 4.0 -1 ------- null}
+ -t 0.2 -s 5 -d 3 -p ping -e 64 -c 1 -i 3 -a 1 -x {5.0 1.0 -1 ------- null}
- -t 0.2 -s 5 -d 3 -p ping -e 64 -c 1 -i 3 -a 1 -x {5.0 1.0 -1 ------- null}
h -t 0.2 -s 5 -d 3 -p ping -e 64 -c 1 -i 3 -a 1 -x {5.0 1.0 -1 ------- null}
r -t 0.20100512 -s 0 -d 2 -p ping -e 64 -c 0 -i 2 -a 0 -x {0.0 4.0 -1 ------- null}
+ -t 0.20100512 -s 2 -d 3 -p ping -e 64 -c 0 -i 2 -a 0 -x {0.0 4.0 -1 ------- null}
r -t 0.20100512 -s 5 -d 3 -p ping -e 64 -c 1 -i 3 -a 1 -x {5.0 1.0 -1 ------- null}
+ -t 0.20100512 -s 3 -d 2 -p ping -e 64 -c 1 -i 3 -a 1 -x {5.0 1.0 -1 ------- null}
- -t 0.20340512 -s 2 -d 3 -p ping -e 64 -c 0 -i 2 -a 0 -x {0.0 4.0 -1 ------- null}
h -t 0.20340512 -s 2 -d 3 -p ping -e 64 -c 0 -i 2 -a 0 -x {0.0 4.0 -1 ------- null}
- -t 0.20340512 -s 3 -d 2 -p ping -e 64 -c 1 -i 3 -a 1 -x {5.0 1.0 -1 ------- null}
h -t 0.20340512 -s 3 -d 2 -p ping -e 64 -c 1 -i 3 -a 1 -x {5.0 1.0 -1 ------- null}
r -t 0.20440512 -s 2 -d 3 -p ping -e 64 -c 0 -i 0 -a 0 -x {0.0 4.0 -1 ------- null}
+ -t 0.20440512 -s 3 -d 4 -p ping -e 64 -c 0 -i 0 -a 0 -x {0.0 4.0 -1 ------- null}
- -t 0.20440512 -s 3 -d 4 -p ping -e 64 -c 0 -i 0 -a 0 -x {0.0 4.0 -1 ------- null}
h -t 0.20440512 -s 3 -d 4 -p ping -e 64 -c 0 -i 0 -a 0 -x {0.0 4.0 -1 ------- null}
r -t 0.20440512 -s 3 -d 2 -p ping -e 64 -c 1 -i 1 -a 1 -x {5.0 1.0 -1 ------- null}
+ -t 0.20440512 -s 2 -d 1 -p ping -e 64 -c 1 -i 1 -a 1 -x {5.0 1.0 -1 ------- null}
- -t 0.20440512 -s 2 -d 1 -p ping -e 64 -c 1 -i 1 -a 1 -x {5.0 1.0 -1 ------- null}
h -t 0.20440512 -s 2 -d 1 -p ping -e 64 -c 1 -i 1 -a 1 -x {5.0 1.0 -1 ------- null}
r -t 0.20541024 -s 3 -d 4 -p ping -e 64 -c 0 -i 0 -a 0 -x {0.0 4.0 -1 ------- null}
+ -t 0.20541024 -s 4 -d 3 -p ping -e 64 -c 0 -i 4 -a 0 -x {4.0 0.0 -1 ------- null}
- -t 0.20541024 -s 4 -d 3 -p ping -e 64 -c 0 -i 4 -a 0 -x {4.0 0.0 -1 ------- null}
h -t 0.20541024 -s 4 -d 3 -p ping -e 64 -c 0 -i 4 -a 0 -x {4.0 0.0 -1 ------- null}
r -t 0.20541024 -s 2 -d 1 -p ping -e 64 -c 1 -i 1 -a 1 -x {5.0 1.0 -1 ------- null}
+ -t 0.20541024 -s 1 -d 2 -p ping -e 64 -c 1 -i 5 -a 1 -x {1.0 5.0 -1 ------- null}
- -t 0.20541024 -s 1 -d 2 -p ping -e 64 -c 1 -i 5 -a 1 -x {1.0 5.0 -1 ------- null}
h -t 0.20541024 -s 1 -d 2 -p ping -e 64 -c 1 -i 5 -a 1 -x {1.0 5.0 -1 ------- null}
r -t 0.20641536 -s 4 -d 3 -p ping -e 64 -c 0 -i 4 -a 0 -x {4.0 0.0 -1 ------- null}
+ -t 0.20641536 -s 3 -d 2 -p ping -e 64 -c 0 -i 4 -a 0 -x {4.0 0.0 -1 ------- null}
r -t 0.20641536 -s 1 -d 2 -p ping -e 64 -c 1 -i 5 -a 1 -x {1.0 5.0 -1 ------- null}
+ -t 0.20641536 -s 2 -d 3 -p ping -e 64 -c 1 -i 5 -a 1 -x {1.0 5.0 -1 ------- null}
+ -t 0.3 -s 0 -d 2 -p ping -e 64 -c 0 -i 6 -a 0 -x {0.0 4.0 -1 ------- null}
- -t 0.3 -s 0 -d 2 -p ping -e 64 -c 0 -i 6 -a 0 -x {0.0 4.0 -1 ------- null}
h -t 0.3 -s 0 -d 2 -p ping -e 64 -c 0 -i 6 -a 0 -x {0.0 4.0 -1 ------- null}
+ -t 0.3 -s 5 -d 3 -p ping -e 64 -c 1 -i 7 -a 1 -x {5.0 1.0 -1 ------- null}
- -t 0.3 -s 5 -d 3 -p ping -e 64 -c 1 -i 7 -a 1 -x {5.0 1.0 -1 ------- null}
h -t 0.3 -s 5 -d 3 -p ping -e 64 -c 1 -i 7 -a 1 -x {5.0 1.0 -1 ------- null}
r -t 0.30100512 -s 0 -d 2 -p ping -e 64 -c 0 -i 6 -a 0 -x {0.0 4.0 -1 ------- null}
+ -t 0.30100512 -s 2 -d 3 -p ping -e 64 -c 0 -i 6 -a 0 -x {0.0 4.0 -1 ------- null}
r -t 0.30100512 -s 5 -d 3 -p ping -e 64 -c 1 -i 7 -a 1 -x {5.0 1.0 -1 ------- null}
+ -t 0.30100512 -s 3 -d 2 -p ping -e 64 -c 1 -i 7 -a 1 -x {5.0 1.0 -1 ------- null}
- -t 0.30580512 -s 2 -d 3 -p ping -e 64 -c 1 -i 5 -a 1 -x {1.0 5.0 -1 ------- null}
h -t 0.30580512 -s 2 -d 3 -p ping -e 64 -c 1 -i 5 -a 1 -x {1.0 5.0 -1 ------- null}
- -t 0.30580512 -s 3 -d 2 -p ping -e 64 -c 0 -i 4 -a 0 -x {4.0 0.0 -1 ------- null}
h -t 0.30580512 -s 3 -d 2 -p ping -e 64 -c 0 -i 4 -a 0 -x {4.0 0.0 -1 ------- null}
r -t 0.30680512 -s 2 -d 3 -p ping -e 64 -c 0 -i 2 -a 0 -x {0.0 4.0 -1 ------- null}
+ -t 0.30680512 -s 3 -d 4 -p ping -e 64 -c 0 -i 2 -a 0 -x {0.0 4.0 -1 ------- null}
- -t 0.30680512 -s 3 -d 4 -p ping -e 64 -c 0 -i 2 -a 0 -x {0.0 4.0 -1 ------- null}
h -t 0.30680512 -s 3 -d 4 -p ping -e 64 -c 0 -i 2 -a 0 -x {0.0 4.0 -1 ------- null}
r -t 0.30680512 -s 3 -d 2 -p ping -e 64 -c 1 -i 3 -a 1 -x {5.0 1.0 -1 ------- null}
+ -t 0.30680512 -s 2 -d 1 -p ping -e 64 -c 1 -i 3 -a 1 -x {5.0 1.0 -1 ------- null}
- -t 0.30680512 -s 2 -d 1 -p ping -e 64 -c 1 -i 3 -a 1 -x {5.0 1.0 -1 ------- null}
h -t 0.30680512 -s 2 -d 1 -p ping -e 64 -c 1 -i 3 -a 1 -x {5.0 1.0 -1 ------- null}
r -t 0.30781024 -s 3 -d 4 -p ping -e 64 -c 0 -i 2 -a 0 -x {0.0 4.0 -1 ------- null}
+ -t 0.30781024 -s 4 -d 3 -p ping -e 64 -c 0 -i 8 -a 0 -x {4.0 0.0 -1 ------- null}
- -t 0.30781024 -s 4 -d 3 -p ping -e 64 -c 0 -i 8 -a 0 -x {4.0 0.0 -1 ------- null}
h -t 0.30781024 -s 4 -d 3 -p ping -e 64 -c 0 -i 8 -a 0 -x {4.0 0.0 -1 ------- null}
r -t 0.30781024 -s 2 -d 1 -p ping -e 64 -c 1 -i 3 -a 1 -x {5.0 1.0 -1 ------- null}
+ -t 0.30781024 -s 1 -d 2 -p ping -e 64 -c 1 -i 9 -a 1 -x {1.0 5.0 -1 ------- null}
- -t 0.30781024 -s 1 -d 2 -p ping -e 64 -c 1 -i 9 -a 1 -x {1.0 5.0 -1 ------- null}
h -t 0.30781024 -s 1 -d 2 -p ping -e 64 -c 1 -i 9 -a 1 -x {1.0 5.0 -1 ------- null}
r -t 0.30881536 -s 4 -d 3 -p ping -e 64 -c 0 -i 8 -a 0 -x {4.0 0.0 -1 ------- null}
+ -t 0.30881536 -s 3 -d 2 -p ping -e 64 -c 0 -i 8 -a 0 -x {4.0 0.0 -1 ------- null}
r -t 0.30881536 -s 1 -d 2 -p ping -e 64 -c 1 -i 9 -a 1 -x {1.0 5.0 -1 ------- null}
+ -t 0.30881536 -s 2 -d 3 -p ping -e 64 -c 1 -i 9 -a 1 -x {1.0 5.0 -1 ------- null}
+ -t 0.4 -s 0 -d 2 -p ping -e 64 -c 0 -i 10 -a 0 -x {0.0 4.0 -1 ------- null}
- -t 0.4 -s 0 -d 2 -p ping -e 64 -c 0 -i 10 -a 0 -x {0.0 4.0 -1 ------- null}
h -t 0.4 -s 0 -d 2 -p ping -e 64 -c 0 -i 10 -a 0 -x {0.0 4.0 -1 ------- null}
+ -t 0.4 -s 5 -d 3 -p ping -e 64 -c 1 -i 11 -a 1 -x {5.0 1.0 -1 ------- null}
- -t 0.4 -s 5 -d 3 -p ping -e 64 -c 1 -i 11 -a 1 -x {5.0 1.0 -1 ------- null}
h -t 0.4 -s 5 -d 3 -p ping -e 64 -c 1 -i 11 -a 1 -x {5.0 1.0 -1 ------- null}
r -t 0.40100512 -s 0 -d 2 -p ping -e 64 -c 0 -i 10 -a 0 -x {0.0 4.0 -1 ------- null}
+ -t 0.40100512 -s 2 -d 3 -p ping -e 64 -c 0 -i 10 -a 0 -x {0.0 4.0 -1 ------- null}
r -t 0.40100512 -s 5 -d 3 -p ping -e 64 -c 1 -i 11 -a 1 -x {5.0 1.0 -1 ------- null}
+ -t 0.40100512 -s 3 -d 2 -p ping -e 64 -c 1 -i 11 -a 1 -x {5.0 1.0 -1 ------- null}
- -t 0.40820512 -s 2 -d 3 -p ping -e 64 -c 0 -i 6 -a 0 -x {0.0 4.0 -1 ------- null}
h -t 0.40820512 -s 2 -d 3 -p ping -e 64 -c 0 -i 6 -a 0 -x {0.0 4.0 -1 ------- null}
- -t 0.40820512 -s 3 -d 2 -p ping -e 64 -c 1 -i 7 -a 1 -x {5.0 1.0 -1 ------- null}
h -t 0.40820512 -s 3 -d 2 -p ping -e 64 -c 1 -i 7 -a 1 -x {5.0 1.0 -1 ------- null}
r -t 0.40920512 -s 2 -d 3 -p ping -e 64 -c 1 -i 5 -a 1 -x {1.0 5.0 -1 ------- null}
+ -t 0.40920512 -s 3 -d 5 -p ping -e 64 -c 1 -i 5 -a 1 -x {1.0 5.0 -1 ------- null}
d -t 0.40920512 -s 3 -d 5 -p ping -e 64 -c 1 -i 5 -a 1 -x {1.0 5.0 -1 ------- null}
r -t 0.40920512 -s 3 -d 2 -p ping -e 64 -c 0 -i 4 -a 0 -x {4.0 0.0 -1 ------- null}
+ -t 0.40920512 -s 2 -d 0 -p ping -e 64 -c 0 -i 4 -a 0 -x {4.0 0.0 -1 ------- null}
- -t 0.40920512 -s 2 -d 0 -p ping -e 64 -c 0 -i 4 -a 0 -x {4.0 0.0 -1 ------- null}
h -t 0.40920512 -s 2 -d 0 -p ping -e 64 -c 0 -i 4 -a 0 -x {4.0 0.0 -1 ------- null}
r -t 0.41021024 -s 2 -d 0 -p ping -e 64 -c 0 -i 4 -a 0 -x {4.0 0.0 -1 ------- null}
+ -t 0.5 -s 0 -d 2 -p ping -e 64 -c 0 -i 12 -a 0 -x {0.0 4.0 -1 ------- null}
- -t 0.5 -s 0 -d 2 -p ping -e 64 -c 0 -i 12 -a 0 -x {0.0 4.0 -1 ------- null}
h -t 0.5 -s 0 -d 2 -p ping -e 64 -c 0 -i 12 -a 0 -x {0.0 4.0 -1 ------- null}
+ -t 0.5 -s 5 -d 3 -p ping -e 64 -c 1 -i 13 -a 1 -x {5.0 1.0 -1 ------- null}
- -t 0.5 -s 5 -d 3 -p ping -e 64 -c 1 -i 13 -a 1 -x {5.0 1.0 -1 ------- null}
h -t 0.5 -s 5 -d 3 -p ping -e 64 -c 1 -i 13 -a 1 -x {5.0 1.0 -1 ------- null}
r -t 0.50100512 -s 0 -d 2 -p ping -e 64 -c 0 -i 12 -a 0 -x {0.0 4.0 -1 ------- null}
+ -t 0.50100512 -s 2 -d 3 -p ping -e 64 -c 0 -i 12 -a 0 -x {0.0 4.0 -1 ------- null}
r -t 0.50100512 -s 5 -d 3 -p ping -e 64 -c 1 -i 13 -a 1 -x {5.0 1.0 -1 ------- null}
+ -t 0.50100512 -s 3 -d 2 -p ping -e 64 -c 1 -i 13 -a 1 -x {5.0 1.0 -1 ------- null}
- -t 0.51060512 -s 2 -d 3 -p ping -e 64 -c 1 -i 9 -a 1 -x {1.0 5.0 -1 ------- null}
h -t 0.51060512 -s 2 -d 3 -p ping -e 64 -c 1 -i 9 -a 1 -x {1.0 5.0 -1 ------- null}
- -t 0.51060512 -s 3 -d 2 -p ping -e 64 -c 0 -i 8 -a 0 -x {4.0 0.0 -1 ------- null}
h -t 0.51060512 -s 3 -d 2 -p ping -e 64 -c 0 -i 8 -a 0 -x {4.0 0.0 -1 ------- null}
r -t 0.51160512 -s 2 -d 3 -p ping -e 64 -c 0 -i 6 -a 0 -x {0.0 4.0 -1 ------- null}
+ -t 0.51160512 -s 3 -d 4 -p ping -e 64 -c 0 -i 6 -a 0 -x {0.0 4.0 -1 ------- null}
- -t 0.51160512 -s 3 -d 4 -p ping -e 64 -c 0 -i 6 -a 0 -x {0.0 4.0 -1 ------- null}
h -t 0.51160512 -s 3 -d 4 -p ping -e 64 -c 0 -i 6 -a 0 -x {0.0 4.0 -1 ------- null}
r -t 0.51160512 -s 3 -d 2 -p ping -e 64 -c 1 -i 7 -a 1 -x {5.0 1.0 -1 ------- null}
+ -t 0.51160512 -s 2 -d 1 -p ping -e 64 -c 1 -i 7 -a 1 -x {5.0 1.0 -1 ------- null}
- -t 0.51160512 -s 2 -d 1 -p ping -e 64 -c 1 -i 7 -a 1 -x {5.0 1.0 -1 ------- null}
h -t 0.51160512 -s 2 -d 1 -p ping -e 64 -c 1 -i 7 -a 1 -x {5.0 1.0 -1 ------- null}
r -t 0.51261024 -s 3 -d 4 -p ping -e 64 -c 0 -i 6 -a 0 -x {0.0 4.0 -1 ------- null}
+ -t 0.51261024 -s 4 -d 3 -p ping -e 64 -c 0 -i 14 -a 0 -x {4.0 0.0 -1 ------- null}
- -t 0.51261024 -s 4 -d 3 -p ping -e 64 -c 0 -i 14 -a 0 -x {4.0 0.0 -1 ------- null}
h -t 0.51261024 -s 4 -d 3 -p ping -e 64 -c 0 -i 14 -a 0 -x {4.0 0.0 -1 ------- null}
r -t 0.51261024 -s 2 -d 1 -p ping -e 64 -c 1 -i 7 -a 1 -x {5.0 1.0 -1 ------- null}
+ -t 0.51261024 -s 1 -d 2 -p ping -e 64 -c 1 -i 15 -a 1 -x {1.0 5.0 -1 ------- null}
- -t 0.51261024 -s 1 -d 2 -p ping -e 64 -c 1 -i 15 -a 1 -x {1.0 5.0 -1 ------- null}
h -t 0.51261024 -s 1 -d 2 -p ping -e 64 -c 1 -i 15 -a 1 -x {1.0 5.0 -1 ------- null}
r -t 0.51361536 -s 4 -d 3 -p ping -e 64 -c 0 -i 14 -a 0 -x {4.0 0.0 -1 ------- null}
+ -t 0.51361536 -s 3 -d 2 -p ping -e 64 -c 0 -i 14 -a 0 -x {4.0 0.0 -1 ------- null}
r -t 0.51361536 -s 1 -d 2 -p ping -e 64 -c 1 -i 15 -a 1 -x {1.0 5.0 -1 ------- null}
+ -t 0.51361536 -s 2 -d 3 -p ping -e 64 -c 1 -i 15 -a 1 -x {1.0 5.0 -1 ------- null}
+ -t 0.6 -s 0 -d 2 -p ping -e 64 -c 0 -i 16 -a 0 -x {0.0 4.0 -1 ------- null}
- -t 0.6 -s 0 -d 2 -p ping -e 64 -c 0 -i 16 -a 0 -x {0.0 4.0 -1 ------- null}
h -t 0.6 -s 0 -d 2 -p ping -e 64 -c 0 -i 16 -a 0 -x {0.0 4.0 -1 ------- null}
+ -t 0.6 -s 5 -d 3 -p ping -e 64 -c 1 -i 17 -a 1 -x {5.0 1.0 -1 ------- null}
- -t 0.6 -s 5 -d 3 -p ping -e 64 -c 1 -i 17 -a 1 -x {5.0 1.0 -1 ------- null}
h -t 0.6 -s 5 -d 3 -p ping -e 64 -c 1 -i 17 -a 1 -x {5.0 1.0 -1 ------- null}
r -t 0.60100512 -s 0 -d 2 -p ping -e 64 -c 0 -i 16 -a 0 -x {0.0 4.0 -1 ------- null}
+ -t 0.60100512 -s 2 -d 3 -p ping -e 64 -c 0 -i 16 -a 0 -x {0.0 4.0 -1 ------- null}
r -t 0.60100512 -s 5 -d 3 -p ping -e 64 -c 1 -i 17 -a 1 -x {5.0 1.0 -1 ------- null}
+ -t 0.60100512 -s 3 -d 2 -p ping -e 64 -c 1 -i 17 -a 1 -x {5.0 1.0 -1 ------- null}
- -t 0.61300512 -s 2 -d 3 -p ping -e 64 -c 0 -i 10 -a 0 -x {0.0 4.0 -1 ------- null}
h -t 0.61300512 -s 2 -d 3 -p ping -e 64 -c 0 -i 10 -a 0 -x {0.0 4.0 -1 ------- null}
- -t 0.61300512 -s 3 -d 2 -p ping -e 64 -c 1 -i 11 -a 1 -x {5.0 1.0 -1 ------- null}
h -t 0.61300512 -s 3 -d 2 -p ping -e 64 -c 1 -i 11 -a 1 -x {5.0 1.0 -1 ------- null}
r -t 0.61400512 -s 2 -d 3 -p ping -e 64 -c 1 -i 9 -a 1 -x {1.0 5.0 -1 ------- null}
+ -t 0.61400512 -s 3 -d 5 -p ping -e 64 -c 1 -i 9 -a 1 -x {1.0 5.0 -1 ------- null}
d -t 0.61400512 -s 3 -d 5 -p ping -e 64 -c 1 -i 9 -a 1 -x {1.0 5.0 -1 ------- null}
r -t 0.61400512 -s 3 -d 2 -p ping -e 64 -c 0 -i 8 -a 0 -x {4.0 0.0 -1 ------- null}
+ -t 0.61400512 -s 2 -d 0 -p ping -e 64 -c 0 -i 8 -a 0 -x {4.0 0.0 -1 ------- null}
- -t 0.61400512 -s 2 -d 0 -p ping -e 64 -c 0 -i 8 -a 0 -x {4.0 0.0 -1 ------- null}
h -t 0.61400512 -s 2 -d 0 -p ping -e 64 -c 0 -i 8 -a 0 -x {4.0 0.0 -1 ------- null}
r -t 0.61501024 -s 2 -d 0 -p ping -e 64 -c 0 -i 8 -a 0 -x {4.0 0.0 -1 ------- null}
+ -t 0.7 -s 0 -d 2 -p ping -e 64 -c 0 -i 18 -a 0 -x {0.0 4.0 -1 ------- null}
- -t 0.7 -s 0 -d 2 -p ping -e 64 -c 0 -i 18 -a 0 -x {0.0 4.0 -1 ------- null}
h -t 0.7 -s 0 -d 2 -p ping -e 64 -c 0 -i 18 -a 0 -x {0.0 4.0 -1 ------- null}
+ -t 0.7 -s 5 -d 3 -p ping -e 64 -c 1 -i 19 -a 1 -x {5.0 1.0 -1 ------- null}
- -t 0.7 -s 5 -d 3 -p ping -e 64 -c 1 -i 19 -a 1 -x {5.0 1.0 -1 ------- null}
h -t 0.7 -s 5 -d 3 -p ping -e 64 -c 1 -i 19 -a 1 -x {5.0 1.0 -1 ------- null}
r -t 0.70100512 -s 0 -d 2 -p ping -e 64 -c 0 -i 18 -a 0 -x {0.0 4.0 -1 ------- null}
+ -t 0.70100512 -s 2 -d 3 -p ping -e 64 -c 0 -i 18 -a 0 -x {0.0 4.0 -1 ------- null}
r -t 0.70100512 -s 5 -d 3 -p ping -e 64 -c 1 -i 19 -a 1 -x {5.0 1.0 -1 ------- null}
+ -t 0.70100512 -s 3 -d 2 -p ping -e 64 -c 1 -i 19 -a 1 -x {5.0 1.0 -1 ------- null}
- -t 0.71540512 -s 2 -d 3 -p ping -e 64 -c 0 -i 12 -a 0 -x {0.0 4.0 -1 ------- null}
h -t 0.71540512 -s 2 -d 3 -p ping -e 64 -c 0 -i 12 -a 0 -x {0.0 4.0 -1 ------- null}
- -t 0.71540512 -s 3 -d 2 -p ping -e 64 -c 1 -i 13 -a 1 -x {5.0 1.0 -1 ------- null}
h -t 0.71540512 -s 3 -d 2 -p ping -e 64 -c 1 -i 13 -a 1 -x {5.0 1.0 -1 ------- null}
r -t 0.71640512 -s 2 -d 3 -p ping -e 64 -c 0 -i 10 -a 0 -x {0.0 4.0 -1 ------- null}
+ -t 0.71640512 -s 3 -d 4 -p ping -e 64 -c 0 -i 10 -a 0 -x {0.0 4.0 -1 ------- null}
- -t 0.71640512 -s 3 -d 4 -p ping -e 64 -c 0 -i 10 -a 0 -x {0.0 4.0 -1 ------- null}
h -t 0.71640512 -s 3 -d 4 -p ping -e 64 -c 0 -i 10 -a 0 -x {0.0 4.0 -1 ------- null}
r -t 0.71640512 -s 3 -d 2 -p ping -e 64 -c 1 -i 11 -a 1 -x {5.0 1.0 -1 ------- null}
+ -t 0.71640512 -s 2 -d 1 -p ping -e 64 -c 1 -i 11 -a 1 -x {5.0 1.0 -1 ------- null}
- -t 0.71640512 -s 2 -d 1 -p ping -e 64 -c 1 -i 11 -a 1 -x {5.0 1.0 -1 ------- null}
h -t 0.71640512 -s 2 -d 1 -p ping -e 64 -c 1 -i 11 -a 1 -x {5.0 1.0 -1 ------- null}
r -t 0.71741024 -s 3 -d 4 -p ping -e 64 -c 0 -i 10 -a 0 -x {0.0 4.0 -1 ------- null}
+ -t 0.71741024 -s 4 -d 3 -p ping -e 64 -c 0 -i 20 -a 0 -x {4.0 0.0 -1 ------- null}
- -t 0.71741024 -s 4 -d 3 -p ping -e 64 -c 0 -i 20 -a 0 -x {4.0 0.0 -1 ------- null}
h -t 0.71741024 -s 4 -d 3 -p ping -e 64 -c 0 -i 20 -a 0 -x {4.0 0.0 -1 ------- null}
r -t 0.71741024 -s 2 -d 1 -p ping -e 64 -c 1 -i 11 -a 1 -x {5.0 1.0 -1 ------- null}
+ -t 0.71741024 -s 1 -d 2 -p ping -e 64 -c 1 -i 21 -a 1 -x {1.0 5.0 -1 ------- null}
- -t 0.71741024 -s 1 -d 2 -p ping -e 64 -c 1 -i 21 -a 1 -x {1.0 5.0 -1 ------- null}
h -t 0.71741024 -s 1 -d 2 -p ping -e 64 -c 1 -i 21 -a 1 -x {1.0 5.0 -1 ------- null}
r -t 0.71841536 -s 4 -d 3 -p ping -e 64 -c 0 -i 20 -a 0 -x {4.0 0.0 -1 ------- null}
+ -t 0.71841536 -s 3 -d 2 -p ping -e 64 -c 0 -i 20 -a 0 -x {4.0 0.0 -1 ------- null}
r -t 0.71841536 -s 1 -d 2 -p ping -e 64 -c 1 -i 21 -a 1 -x {1.0 5.0 -1 ------- null}
+ -t 0.71841536 -s 2 -d 3 -p ping -e 64 -c 1 -i 21 -a 1 -x {1.0 5.0 -1 ------- null}
+ -t 0.8 -s 0 -d 2 -p ping -e 64 -c 0 -i 22 -a 0 -x {0.0 4.0 -1 ------- null}
- -t 0.8 -s 0 -d 2 -p ping -e 64 -c 0 -i 22 -a 0 -x {0.0 4.0 -1 ------- null}
h -t 0.8 -s 0 -d 2 -p ping -e 64 -c 0 -i 22 -a 0 -x {0.0 4.0 -1 ------- null}
+ -t 0.8 -s 5 -d 3 -p ping -e 64 -c 1 -i 23 -a 1 -x {5.0 1.0 -1 ------- null}
- -t 0.8 -s 5 -d 3 -p ping -e 64 -c 1 -i 23 -a 1 -x {5.0 1.0 -1 ------- null}
h -t 0.8 -s 5 -d 3 -p ping -e 64 -c 1 -i 23 -a 1 -x {5.0 1.0 -1 ------- null}
r -t 0.80100512 -s 0 -d 2 -p ping -e 64 -c 0 -i 22 -a 0 -x {0.0 4.0 -1 ------- null}
+ -t 0.80100512 -s 2 -d 3 -p ping -e 64 -c 0 -i 22 -a 0 -x {0.0 4.0 -1 ------- null}
r -t 0.80100512 -s 5 -d 3 -p ping -e 64 -c 1 -i 23 -a 1 -x {5.0 1.0 -1 ------- null}
+ -t 0.80100512 -s 3 -d 2 -p ping -e 64 -c 1 -i 23 -a 1 -x {5.0 1.0 -1 ------- null}
- -t 0.81780512 -s 2 -d 3 -p ping -e 64 -c 1 -i 15 -a 1 -x {1.0 5.0 -1 ------- null}
h -t 0.81780512 -s 2 -d 3 -p ping -e 64 -c 1 -i 15 -a 1 -x {1.0 5.0 -1 ------- null}
- -t 0.81780512 -s 3 -d 2 -p ping -e 64 -c 0 -i 14 -a 0 -x {4.0 0.0 -1 ------- null}
h -t 0.81780512 -s 3 -d 2 -p ping -e 64 -c 0 -i 14 -a 0 -x {4.0 0.0 -1 ------- null}
r -t 0.81880512 -s 2 -d 3 -p ping -e 64 -c 0 -i 12 -a 0 -x {0.0 4.0 -1 ------- null}
+ -t 0.81880512 -s 3 -d 4 -p ping -e 64 -c 0 -i 12 -a 0 -x {0.0 4.0 -1 ------- null}
- -t 0.81880512 -s 3 -d 4 -p ping -e 64 -c 0 -i 12 -a 0 -x {0.0 4.0 -1 ------- null}
h -t 0.81880512 -s 3 -d 4 -p ping -e 64 -c 0 -i 12 -a 0 -x {0.0 4.0 -1 ------- null}
r -t 0.81880512 -s 3 -d 2 -p ping -e 64 -c 1 -i 13 -a 1 -x {5.0 1.0 -1 ------- null}
+ -t 0.81880512 -s 2 -d 1 -p ping -e 64 -c 1 -i 13 -a 1 -x {5.0 1.0 -1 ------- null}
- -t 0.81880512 -s 2 -d 1 -p ping -e 64 -c 1 -i 13 -a 1 -x {5.0 1.0 -1 ------- null}
h -t 0.81880512 -s 2 -d 1 -p ping -e 64 -c 1 -i 13 -a 1 -x {5.0 1.0 -1 ------- null}
r -t 0.81981024 -s 3 -d 4 -p ping -e 64 -c 0 -i 12 -a 0 -x {0.0 4.0 -1 ------- null}
+ -t 0.81981024 -s 4 -d 3 -p ping -e 64 -c 0 -i 24 -a 0 -x {4.0 0.0 -1 ------- null}
- -t 0.81981024 -s 4 -d 3 -p ping -e 64 -c 0 -i 24 -a 0 -x {4.0 0.0 -1 ------- null}
h -t 0.81981024 -s 4 -d 3 -p ping -e 64 -c 0 -i 24 -a 0 -x {4.0 0.0 -1 ------- null}
r -t 0.81981024 -s 2 -d 1 -p ping -e 64 -c 1 -i 13 -a 1 -x {5.0 1.0 -1 ------- null}
+ -t 0.81981024 -s 1 -d 2 -p ping -e 64 -c 1 -i 25 -a 1 -x {1.0 5.0 -1 ------- null}
- -t 0.81981024 -s 1 -d 2 -p ping -e 64 -c 1 -i 25 -a 1 -x {1.0 5.0 -1 ------- null}
h -t 0.81981024 -s 1 -d 2 -p ping -e 64 -c 1 -i 25 -a 1 -x {1.0 5.0 -1 ------- null}
r -t 0.82081536 -s 4 -d 3 -p ping -e 64 -c 0 -i 24 -a 0 -x {4.0 0.0 -1 ------- null}
+ -t 0.82081536 -s 3 -d 2 -p ping -e 64 -c 0 -i 24 -a 0 -x {4.0 0.0 -1 ------- null}
r -t 0.82081536 -s 1 -d 2 -p ping -e 64 -c 1 -i 25 -a 1 -x {1.0 5.0 -1 ------- null}
+ -t 0.82081536 -s 2 -d 3 -p ping -e 64 -c 1 -i 25 -a 1 -x {1.0 5.0 -1 ------- null}
+ -t 0.9 -s 0 -d 2 -p ping -e 64 -c 0 -i 26 -a 0 -x {0.0 4.0 -1 ------- null}
- -t 0.9 -s 0 -d 2 -p ping -e 64 -c 0 -i 26 -a 0 -x {0.0 4.0 -1 ------- null}
h -t 0.9 -s 0 -d 2 -p ping -e 64 -c 0 -i 26 -a 0 -x {0.0 4.0 -1 ------- null}
+ -t 0.9 -s 5 -d 3 -p ping -e 64 -c 1 -i 27 -a 1 -x {5.0 1.0 -1 ------- null}
- -t 0.9 -s 5 -d 3 -p ping -e 64 -c 1 -i 27 -a 1 -x {5.0 1.0 -1 ------- null}
h -t 0.9 -s 5 -d 3 -p ping -e 64 -c 1 -i 27 -a 1 -x {5.0 1.0 -1 ------- null}
r -t 0.90100512 -s 0 -d 2 -p ping -e 64 -c 0 -i 26 -a 0 -x {0.0 4.0 -1 ------- null}
+ -t 0.90100512 -s 2 -d 3 -p ping -e 64 -c 0 -i 26 -a 0 -x {0.0 4.0 -1 ------- null}
r -t 0.90100512 -s 5 -d 3 -p ping -e 64 -c 1 -i 27 -a 1 -x {5.0 1.0 -1 ------- null}
+ -t 0.90100512 -s 3 -d 2 -p ping -e 64 -c 1 -i 27 -a 1 -x {5.0 1.0 -1 ------- null}
- -t 0.92020512 -s 2 -d 3 -p ping -e 64 -c 0 -i 16 -a 0 -x {0.0 4.0 -1 ------- null}
h -t 0.92020512 -s 2 -d 3 -p ping -e 64 -c 0 -i 16 -a 0 -x {0.0 4.0 -1 ------- null}
- -t 0.92020512 -s 3 -d 2 -p ping -e 64 -c 1 -i 17 -a 1 -x {5.0 1.0 -1 ------- null}
h -t 0.92020512 -s 3 -d 2 -p ping -e 64 -c 1 -i 17 -a 1 -x {5.0 1.0 -1 ------- null}
r -t 0.92120512 -s 2 -d 3 -p ping -e 64 -c 1 -i 15 -a 1 -x {1.0 5.0 -1 ------- null}
+ -t 0.92120512 -s 3 -d 5 -p ping -e 64 -c 1 -i 15 -a 1 -x {1.0 5.0 -1 ------- null}
d -t 0.92120512 -s 3 -d 5 -p ping -e 64 -c 1 -i 15 -a 1 -x {1.0 5.0 -1 ------- null}
r -t 0.92120512 -s 3 -d 2 -p ping -e 64 -c 0 -i 14 -a 0 -x {4.0 0.0 -1 ------- null}
+ -t 0.92120512 -s 2 -d 0 -p ping -e 64 -c 0 -i 14 -a 0 -x {4.0 0.0 -1 ------- null}
- -t 0.92120512 -s 2 -d 0 -p ping -e 64 -c 0 -i 14 -a 0 -x {4.0 0.0 -1 ------- null}
h -t 0.92120512 -s 2 -d 0 -p ping -e 64 -c 0 -i 14 -a 0 -x {4.0 0.0 -1 ------- null}
r -t 0.92221024 -s 2 -d 0 -p ping -e 64 -c 0 -i 14 -a 0 -x {4.0 0.0 -1 ------- null}
+ -t 1 -s 0 -d 2 -p ping -e 64 -c 0 -i 28 -a 0 -x {0.0 4.0 -1 ------- null}
- -t 1 -s 0 -d 2 -p ping -e 64 -c 0 -i 28 -a 0 -x {0.0 4.0 -1 ------- null}
h -t 1 -s 0 -d 2 -p ping -e 64 -c 0 -i 28 -a 0 -x {0.0 4.0 -1 ------- null}
+ -t 1 -s 5 -d 3 -p ping -e 64 -c 1 -i 29 -a 1 -x {5.0 1.0 -1 ------- null}
- -t 1 -s 5 -d 3 -p ping -e 64 -c 1 -i 29 -a 1 -x {5.0 1.0 -1 ------- null}
h -t 1 -s 5 -d 3 -p ping -e 64 -c 1 -i 29 -a 1 -x {5.0 1.0 -1 ------- null}
r -t 1.00100512 -s 0 -d 2 -p ping -e 64 -c 0 -i 28 -a 0 -x {0.0 4.0 -1 ------- null}
+ -t 1.00100512 -s 2 -d 3 -p ping -e 64 -c 0 -i 28 -a 0 -x {0.0 4.0 -1 ------- null}
r -t 1.00100512 -s 5 -d 3 -p ping -e 64 -c 1 -i 29 -a 1 -x {5.0 1.0 -1 ------- null}
+ -t 1.00100512 -s 3 -d 2 -p ping -e 64 -c 1 -i 29 -a 1 -x {5.0 1.0 -1 ------- null}
- -t 1.02260512 -s 2 -d 3 -p ping -e 64 -c 0 -i 18 -a 0 -x {0.0 4.0 -1 ------- null}
h -t 1.02260512 -s 2 -d 3 -p ping -e 64 -c 0 -i 18 -a 0 -x {0.0 4.0 -1 ------- null}
- -t 1.02260512 -s 3 -d 2 -p ping -e 64 -c 1 -i 19 -a 1 -x {5.0 1.0 -1 ------- null}
h -t 1.02260512 -s 3 -d 2 -p ping -e 64 -c 1 -i 19 -a 1 -x {5.0 1.0 -1 ------- null}
r -t 1.02360512 -s 2 -d 3 -p ping -e 64 -c 0 -i 16 -a 0 -x {0.0 4.0 -1 ------- null}
+ -t 1.02360512 -s 3 -d 4 -p ping -e 64 -c 0 -i 16 -a 0 -x {0.0 4.0 -1 ------- null}
- -t 1.02360512 -s 3 -d 4 -p ping -e 64 -c 0 -i 16 -a 0 -x {0.0 4.0 -1 ------- null}
h -t 1.02360512 -s 3 -d 4 -p ping -e 64 -c 0 -i 16 -a 0 -x {0.0 4.0 -1 ------- null}
r -t 1.02360512 -s 3 -d 2 -p ping -e 64 -c 1 -i 17 -a 1 -x {5.0 1.0 -1 ------- null}
+ -t 1.02360512 -s 2 -d 1 -p ping -e 64 -c 1 -i 17 -a 1 -x {5.0 1.0 -1 ------- null}
- -t 1.02360512 -s 2 -d 1 -p ping -e 64 -c 1 -i 17 -a 1 -x {5.0 1.0 -1 ------- null}
h -t 1.02360512 -s 2 -d 1 -p ping -e 64 -c 1 -i 17 -a 1 -x {5.0 1.0 -1 ------- null}
r -t 1.02461024 -s 3 -d 4 -p ping -e 64 -c 0 -i 16 -a 0 -x {0.0 4.0 -1 ------- null}
+ -t 1.02461024 -s 4 -d 3 -p ping -e 64 -c 0 -i 30 -a 0 -x {4.0 0.0 -1 ------- null}
- -t 1.02461024 -s 4 -d 3 -p ping -e 64 -c 0 -i 30 -a 0 -x {4.0 0.0 -1 ------- null}
h -t 1.02461024 -s 4 -d 3 -p ping -e 64 -c 0 -i 30 -a 0 -x {4.0 0.0 -1 ------- null}
r -t 1.02461024 -s 2 -d 1 -p ping -e 64 -c 1 -i 17 -a 1 -x {5.0 1.0 -1 ------- null}
+ -t 1.02461024 -s 1 -d 2 -p ping -e 64 -c 1 -i 31 -a 1 -x {1.0 5.0 -1 ------- null}
- -t 1.02461024 -s 1 -d 2 -p ping -e 64 -c 1 -i 31 -a 1 -x {1.0 5.0 -1 ------- null}
h -t 1.02461024 -s 1 -d 2 -p ping -e 64 -c 1 -i 31 -a 1 -x {1.0 5.0 -1 ------- null}
r -t 1.02561536 -s 4 -d 3 -p ping -e 64 -c 0 -i 30 -a 0 -x {4.0 0.0 -1 ------- null}
+ -t 1.02561536 -s 3 -d 2 -p ping -e 64 -c 0 -i 30 -a 0 -x {4.0 0.0 -1 ------- null}
r -t 1.02561536 -s 1 -d 2 -p ping -e 64 -c 1 -i 31 -a 1 -x {1.0 5.0 -1 ------- null}
+ -t 1.02561536 -s 2 -d 3 -p ping -e 64 -c 1 -i 31 -a 1 -x {1.0 5.0 -1 ------- null}
+ -t 1.1 -s 0 -d 2 -p ping -e 64 -c 0 -i 32 -a 0 -x {0.0 4.0 -1 ------- null}
- -t 1.1 -s 0 -d 2 -p ping -e 64 -c 0 -i 32 -a 0 -x {0.0 4.0 -1 ------- null}
h -t 1.1 -s 0 -d 2 -p ping -e 64 -c 0 -i 32 -a 0 -x {0.0 4.0 -1 ------- null}
+ -t 1.1 -s 5 -d 3 -p ping -e 64 -c 1 -i 33 -a 1 -x {5.0 1.0 -1 ------- null}
- -t 1.1 -s 5 -d 3 -p ping -e 64 -c 1 -i 33 -a 1 -x {5.0 1.0 -1 ------- null}
h -t 1.1 -s 5 -d 3 -p ping -e 64 -c 1 -i 33 -a 1 -x {5.0 1.0 -1 ------- null}
r -t 1.10100512 -s 0 -d 2 -p ping -e 64 -c 0 -i 32 -a 0 -x {0.0 4.0 -1 ------- null}
+ -t 1.10100512 -s 2 -d 3 -p ping -e 64 -c 0 -i 32 -a 0 -x {0.0 4.0 -1 ------- null}
r -t 1.10100512 -s 5 -d 3 -p ping -e 64 -c 1 -i 33 -a 1 -x {5.0 1.0 -1 ------- null}
+ -t 1.10100512 -s 3 -d 2 -p ping -e 64 -c 1 -i 33 -a 1 -x {5.0 1.0 -1 ------- null}
- -t 1.12500512 -s 2 -d 3 -p ping -e 64 -c 1 -i 21 -a 1 -x {1.0 5.0 -1 ------- null}
h -t 1.12500512 -s 2 -d 3 -p ping -e 64 -c 1 -i 21 -a 1 -x {1.0 5.0 -1 ------- null}
- -t 1.12500512 -s 3 -d 2 -p ping -e 64 -c 0 -i 20 -a 0 -x {4.0 0.0 -1 ------- null}
h -t 1.12500512 -s 3 -d 2 -p ping -e 64 -c 0 -i 20 -a 0 -x {4.0 0.0 -1 ------- null}
r -t 1.12600512 -s 2 -d 3 -p ping -e 64 -c 0 -i 18 -a 0 -x {0.0 4.0 -1 ------- null}
+ -t 1.12600512 -s 3 -d 4 -p ping -e 64 -c 0 -i 18 -a 0 -x {0.0 4.0 -1 ------- null}
- -t 1.12600512 -s 3 -d 4 -p ping -e 64 -c 0 -i 18 -a 0 -x {0.0 4.0 -1 ------- null}
h -t 1.12600512 -s 3 -d 4 -p ping -e 64 -c 0 -i 18 -a 0 -x {0.0 4.0 -1 ------- null}
r -t 1.12600512 -s 3 -d 2 -p ping -e 64 -c 1 -i 19 -a 1 -x {5.0 1.0 -1 ------- null}
+ -t 1.12600512 -s 2 -d 1 -p ping -e 64 -c 1 -i 19 -a 1 -x {5.0 1.0 -1 ------- null}
- -t 1.12600512 -s 2 -d 1 -p ping -e 64 -c 1 -i 19 -a 1 -x {5.0 1.0 -1 ------- null}
h -t 1.12600512 -s 2 -d 1 -p ping -e 64 -c 1 -i 19 -a 1 -x {5.0 1.0 -1 ------- null}
r -t 1.12701024 -s 3 -d 4 -p ping -e 64 -c 0 -i 18 -a 0 -x {0.0 4.0 -1 ------- null}
+ -t 1.12701024 -s 4 -d 3 -p ping -e 64 -c 0 -i 34 -a 0 -x {4.0 0.0 -1 ------- null}
- -t 1.12701024 -s 4 -d 3 -p ping -e 64 -c 0 -i 34 -a 0 -x {4.0 0.0 -1 ------- null}
h -t 1.12701024 -s 4 -d 3 -p ping -e 64 -c 0 -i 34 -a 0 -x {4.0 0.0 -1 ------- null}
r -t 1.12701024 -s 2 -d 1 -p ping -e 64 -c 1 -i 19 -a 1 -x {5.0 1.0 -1 ------- null}
+ -t 1.12701024 -s 1 -d 2 -p ping -e 64 -c 1 -i 35 -a 1 -x {1.0 5.0 -1 ------- null}
- -t 1.12701024 -s 1 -d 2 -p ping -e 64 -c 1 -i 35 -a 1 -x {1.0 5.0 -1 ------- null}
h -t 1.12701024 -s 1 -d 2 -p ping -e 64 -c 1 -i 35 -a 1 -x {1.0 5.0 -1 ------- null}
r -t 1.12801536 -s 4 -d 3 -p ping -e 64 -c 0 -i 34 -a 0 -x {4.0 0.0 -1 ------- null}
+ -t 1.12801536 -s 3 -d 2 -p ping -e 64 -c 0 -i 34 -a 0 -x {4.0 0.0 -1 ------- null}
r -t 1.12801536 -s 1 -d 2 -p ping -e 64 -c 1 -i 35 -a 1 -x {1.0 5.0 -1 ------- null}
+ -t 1.12801536 -s 2 -d 3 -p ping -e 64 -c 1 -i 35 -a 1 -x {1.0 5.0 -1 ------- null}
+ -t 1.2 -s 0 -d 2 -p ping -e 64 -c 0 -i 36 -a 0 -x {0.0 4.0 -1 ------- null}
- -t 1.2 -s 0 -d 2 -p ping -e 64 -c 0 -i 36 -a 0 -x {0.0 4.0 -1 ------- null}
h -t 1.2 -s 0 -d 2 -p ping -e 64 -c 0 -i 36 -a 0 -x {0.0 4.0 -1 ------- null}
+ -t 1.2 -s 5 -d 3 -p ping -e 64 -c 1 -i 37 -a 1 -x {5.0 1.0 -1 ------- null}
- -t 1.2 -s 5 -d 3 -p ping -e 64 -c 1 -i 37 -a 1 -x {5.0 1.0 -1 ------- null}
h -t 1.2 -s 5 -d 3 -p ping -e 64 -c 1 -i 37 -a 1 -x {5.0 1.0 -1 ------- null}
r -t 1.20100512 -s 0 -d 2 -p ping -e 64 -c 0 -i 36 -a 0 -x {0.0 4.0 -1 ------- null}
+ -t 1.20100512 -s 2 -d 3 -p ping -e 64 -c 0 -i 36 -a 0 -x {0.0 4.0 -1 ------- null}
d -t 1.20100512 -s 2 -d 3 -p ping -e 64 -c 0 -i 36 -a 0 -x {0.0 4.0 -1 ------- null}
r -t 1.20100512 -s 5 -d 3 -p ping -e 64 -c 1 -i 37 -a 1 -x {5.0 1.0 -1 ------- null}
+ -t 1.20100512 -s 3 -d 2 -p ping -e 64 -c 1 -i 37 -a 1 -x {5.0 1.0 -1 ------- null}
- -t 1.22740512 -s 2 -d 3 -p ping -e 64 -c 0 -i 22 -a 0 -x {0.0 4.0 -1 ------- null}
h -t 1.22740512 -s 2 -d 3 -p ping -e 64 -c 0 -i 22 -a 0 -x {0.0 4.0 -1 ------- null}
- -t 1.22740512 -s 3 -d 2 -p ping -e 64 -c 1 -i 23 -a 1 -x {5.0 1.0 -1 ------- null}
h -t 1.22740512 -s 3 -d 2 -p ping -e 64 -c 1 -i 23 -a 1 -x {5.0 1.0 -1 ------- null}
r -t 1.22840512 -s 2 -d 3 -p ping -e 64 -c 1 -i 21 -a 1 -x {1.0 5.0 -1 ------- null}
+ -t 1.22840512 -s 3 -d 5 -p ping -e 64 -c 1 -i 21 -a 1 -x {1.0 5.0 -1 ------- null}
d -t 1.22840512 -s 3 -d 5 -p ping -e 64 -c 1 -i 21 -a 1 -x {1.0 5.0 -1 ------- null}
r -t 1.22840512 -s 3 -d 2 -p ping -e 64 -c 0 -i 20 -a 0 -x {4.0 0.0 -1 ------- null}
+ -t 1.22840512 -s 2 -d 0 -p ping -e 64 -c 0 -i 20 -a 0 -x {4.0 0.0 -1 ------- null}
- -t 1.22840512 -s 2 -d 0 -p ping -e 64 -c 0 -i 20 -a 0 -x {4.0 0.0 -1 ------- null}
h -t 1.22840512 -s 2 -d 0 -p ping -e 64 -c 0 -i 20 -a 0 -x {4.0 0.0 -1 ------- null}
r -t 1.22941024 -s 2 -d 0 -p ping -e 64 -c 0 -i 20 -a 0 -x {4.0 0.0 -1 ------- null}
+ -t 1.3 -s 0 -d 2 -p ping -e 64 -c 0 -i 38 -a 0 -x {0.0 4.0 -1 ------- null}
- -t 1.3 -s 0 -d 2 -p ping -e 64 -c 0 -i 38 -a 0 -x {0.0 4.0 -1 ------- null}
h -t 1.3 -s 0 -d 2 -p ping -e 64 -c 0 -i 38 -a 0 -x {0.0 4.0 -1 ------- null}
+ -t 1.3 -s 5 -d 3 -p ping -e 64 -c 1 -i 39 -a 1 -x {5.0 1.0 -1 ------- null}
- -t 1.3 -s 5 -d 3 -p ping -e 64 -c 1 -i 39 -a 1 -x {5.0 1.0 -1 ------- null}
h -t 1.3 -s 5 -d 3 -p ping -e 64 -c 1 -i 39 -a 1 -x {5.0 1.0 -1 ------- null}
r -t 1.30100512 -s 0 -d 2 -p ping -e 64 -c 0 -i 38 -a 0 -x {0.0 4.0 -1 ------- null}
+ -t 1.30100512 -s 2 -d 3 -p ping -e 64 -c 0 -i 38 -a 0 -x {0.0 4.0 -1 ------- null}
r -t 1.30100512 -s 5 -d 3 -p ping -e 64 -c 1 -i 39 -a 1 -x {5.0 1.0 -1 ------- null}
+ -t 1.30100512 -s 3 -d 2 -p ping -e 64 -c 1 -i 39 -a 1 -x {5.0 1.0 -1 ------- null}
- -t 1.32980512 -s 2 -d 3 -p ping -e 64 -c 1 -i 25 -a 1 -x {1.0 5.0 -1 ------- null}