+ 0.1 0 2 ping 64 ------- 0 0.0 4.0 -1 0
- 0.1 0 2 ping 64 ------- 0 0.0 4.0 -1 0
+ 0.1 5 3 ping 64 ------- 1 5.0 1.0 -1 1
- 0.1 5 3 ping 64 ------- 1 5.0 1.0 -1 1
r 0.101005 0 2 ping 64 ------- 0 0.0 4.0 -1 0
+ 0.101005 2 3 ping 64 ------- 0 0.0 4.0 -1 0
- 0.101005 2 3 ping 64 ------- 0 0.0 4.0 -1 0
r 0.101005 5 3 ping 64 ------- 1 5.0 1.0 -1 1
+ 0.101005 3 2 ping 64 ------- 1 5.0 1.0 -1 1
- 0.101005 3 2 ping 64 ------- 1 5.0 1.0 -1 1
+ 0.2 0 2 ping 64 ------- 0 0.0 4.0 -1 2
- 0.2 0 2 ping 64 ------- 0 0.0 4.0 -1 2
+ 0.2 5 3 ping 64 ------- 1 5.0 1.0 -1 3
- 0.2 5 3 ping 64 ------- 1 5.0 1.0 -1 3
r 0.201005 0 2 ping 64 ------- 0 0.0 4.0 -1 2
+ 0.201005 2 3 ping 64 ------- 0 0.0 4.0 -1 2
r 0.201005 5 3 ping 64 ------- 1 5.0 1.0 -1 3
+ 0.201005 3 2 ping 64 ------- 1 5.0 1.0 -1 3
- 0.203405 2 3 ping 64 ------- 0 0.0 4.0 -1 2
- 0.203405 3 2 ping 64 ------- 1 5.0 1.0 -1 3
r 0.204405 2 3 ping 64 ------- 0 0.0 4.0 -1 0
+ 0.204405 3 4 ping 64 ------- 0 0.0 4.0 -1 0
- 0.204405 3 4 ping 64 ------- 0 0.0 4.0 -1 0
r 0.204405 3 2 ping 64 ------- 1 5.0 1.0 -1 1
+ 0.204405 2 1 ping 64 ------- 1 5.0 1.0 -1 1
- 0.204405 2 1 ping 64 ------- 1 5.0 1.0 -1 1
r 0.20541 3 4 ping 64 ------- 0 0.0 4.0 -1 0
+ 0.20541 4 3 ping 64 ------- 0 4.0 0.0 -1 4
- 0.20541 4 3 ping 64 ------- 0 4.0 0.0 -1 4
r 0.20541 2 1 ping 64 ------- 1 5.0 1.0 -1 1
+ 0.20541 1 2 ping 64 ------- 1 1.0 5.0 -1 5
- 0.20541 1 2 ping 64 ------- 1 1.0 5.0 -1 5
r 0.206415 4 3 ping 64 ------- 0 4.0 0.0 -1 4
+ 0.206415 3 2 ping 64 ------- 0 4.0 0.0 -1 4
r 0.206415 1 2 ping 64 ------- 1 1.0 5.0 -1 5
+ 0.206415 2 3 ping 64 ------- 1 1.0 5.0 -1 5
+ 0.3 0 2 ping 64 ------- 0 0.0 4.0 -1 6
- 0.3 0 2 ping 64 ------- 0 0.0 4.0 -1 6
+ 0.3 5 3 ping 64 ------- 1 5.0 1.0 -1 7
- 0.3 5 3 ping 64 ------- 1 5.0 1.0 -1 7
r 0.301005 0 2 ping 64 ------- 0 0.0 4.0 -1 6
+ 0.301005 2 3 ping 64 ------- 0 0.0 4.0 -1 6
r 0.301005 5 3 ping 64 ------- 1 5.0 1.0 -1 7
+ 0.301005 3 2 ping 64 ------- 1 5.0 1.0 -1 7
- 0.305805 2 3 ping 64 ------- 1 1.0 5.0 -1 5
- 0.305805 3 2 ping 64 ------- 0 4.0 0.0 -1 4
r 0.306805 2 3 ping 64 ------- 0 0.0 4.0 -1 2
+ 0.306805 3 4 ping 64 ------- 0 0.0 4.0 -1 2
- 0.306805 3 4 ping 64 ------- 0 0.0 4.0 -1 2
r 0.306805 3 2 ping 64 ------- 1 5.0 1.0 -1 3
+ 0.306805 2 1 ping 64 ------- 1 5.0 1.0 -1 3
- 0.306805 2 1 ping 64 ------- 1 5.0 1.0 -1 3
r 0.30781 3 4 ping 64 ------- 0 0.0 4.0 -1 2
+ 0.30781 4 3 ping 64 ------- 0 4.0 0.0 -1 8
- 0.30781 4 3 ping 64 ------- 0 4.0 0.0 -1 8
r 0.30781 2 1 ping 64 ------- 1 5.0 1.0 -1 3
+ 0.30781 1 2 ping 64 ------- 1 1.0 5.0 -1 9
- 0.30781 1 2 ping 64 ------- 1 1.0 5.0 -1 9
r 0.308815 4 3 ping 64 ------- 0 4.0 0.0 -1 8
+ 0.308815 3 2 ping 64 ------- 0 4.0 0.0 -1 8
r 0.308815 1 2 ping 64 ------- 1 1.0 5.0 -1 9
+ 0.308815 2 3 ping 64 ------- 1 1.0 5.0 -1 9
+ 0.4 0 2 ping 64 ------- 0 0.0 4.0 -1 10
- 0.4 0 2 ping 64 ------- 0 0.0 4.0 -1 10
+ 0.4 5 3 ping 64 ------- 1 5.0 1.0 -1 11
- 0.4 5 3 ping 64 ------- 1 5.0 1.0 -1 11
r 0.401005 0 2 ping 64 ------- 0 0.0 4.0 -1 10
+ 0.401005 2 3 ping 64 ------- 0 0.0 4.0 -1 10
r 0.401005 5 3 ping 64 ------- 1 5.0 1.0 -1 11
+ 0.401005 3 2 ping 64 ------- 1 5.0 1.0 -1 11
- 0.408205 2 3 ping 64 ------- 0 0.0 4.0 -1 6
- 0.408205 3 2 ping 64 ------- 1 5.0 1.0 -1 7
r 0.409205 2 3 ping 64 ------- 1 1.0 5.0 -1 5
+ 0.409205 3 5 ping 64 ------- 1 1.0 5.0 -1 5
d 0.409205 3 5 ping 64 ------- 1 1.0 5.0 -1 5
r 0.409205 3 2 ping 64 ------- 0 4.0 0.0 -1 4
+ 0.409205 2 0 ping 64 ------- 0 4.0 0.0 -1 4
- 0.409205 2 0 ping 64 ------- 0 4.0 0.0 -1 4
r 0.41021 2 0 ping 64 ------- 0 4.0 0.0 -1 4
+ 0.5 0 2 ping 64 ------- 0 0.0 4.0 -1 12
- 0.5 0 2 ping 64 ------- 0 0.0 4.0 -1 12
+ 0.5 5 3 ping 64 ------- 1 5.0 1.0 -1 13
- 0.5 5 3 ping 64 ------- 1 5.0 1.0 -1 13
r 0.501005 0 2 ping 64 ------- 0 0.0 4.0 -1 12
+ 0.501005 2 3 ping 64 ------- 0 0.0 4.0 -1 12
r 0.501005 5 3 ping 64 ------- 1 5.0 1.0 -1 13
+ 0.501005 3 2 ping 64 ------- 1 5.0 1.0 -1 13
- 0.510605 2 3 ping 64 ------- 1 1.0 5.0 -1 9
- 0.510605 3 2 ping 64 ------- 0 4.0 0.0 -1 8
r 0.511605 2 3 ping 64 ------- 0 0.0 4.0 -1 6
+ 0.511605 3 4 ping 64 ------- 0 0.0 4.0 -1 6
- 0.511605 3 4 ping 64 ------- 0 0.0 4.0 -1 6
r 0.511605 3 2 ping 64 ------- 1 5.0 1.0 -1 7
+ 0.511605 2 1 ping 64 ------- 1 5.0 1.0 -1 7
- 0.511605 2 1 ping 64 ------- 1 5.0 1.0 -1 7
r 0.51261 3 4 ping 64 ------- 0 0.0 4.0 -1 6
+ 0.51261 4 3 ping 64 ------- 0 4.0 0.0 -1 14
- 0.51261 4 3 ping 64 ------- 0 4.0 0.0 -1 14
r 0.51261 2 1 ping 64 ------- 1 5.0 1.0 -1 7
+ 0.51261 1 2 ping 64 ------- 1 1.0 5.0 -1 15
- 0.51261 1 2 ping 64 ------- 1 1.0 5.0 -1 15
r 0.513615 4 3 ping 64 ------- 0 4.0 0.0 -1 14
+ 0.513615 3 2 ping 64 ------- 0 4.0 0.0 -1 14
r 0.513615 1 2 ping 64 ------- 1 1.0 5.0 -1 15
+ 0.513615 2 3 ping 64 ------- 1 1.0 5.0 -1 15
+ 0.6 0 2 ping 64 ------- 0 0.0 4.0 -1 16
- 0.6 0 2 ping 64 ------- 0 0.0 4.0 -1 16
+ 0.6 5 3 ping 64 ------- 1 5.0 1.0 -1 17
- 0.6 5 3 ping 64 ------- 1 5.0 1.0 -1 17
r 0.601005 0 2 ping 64 ------- 0 0.0 4.0 -1 16
+ 0.601005 2 3 ping 64 ------- 0 0.0 4.0 -1 16
r 0.601005 5 3 ping 64 ------- 1 5.0 1.0 -1 17
+ 0.601005 3 2 ping 64 ------- 1 5.0 1.0 -1 17
- 0.613005 2 3 ping 64 ------- 0 0.0 4.0 -1 10
- 0.613005 3 2 ping 64 ------- 1 5.0 1.0 -1 11
r 0.614005 2 3 ping 64 ------- 1 1.0 5.0 -1 9
+ 0.614005 3 5 ping 64 ------- 1 1.0 5.0 -1 9
d 0.614005 3 5 ping 64 ------- 1 1.0 5.0 -1 9
r 0.614005 3 2 ping 64 ------- 0 4.0 0.0 -1 8
+ 0.614005 2 0 ping 64 ------- 0 4.0 0.0 -1 8
- 0.614005 2 0 ping 64 ------- 0 4.0 0.0 -1 8
r 0.61501 2 0 ping 64 ------- 0 4.0 0.0 -1 8
+ 0.7 0 2 ping 64 ------- 0 0.0 4.0 -1 18
- 0.7 0 2 ping 64 ------- 0 0.0 4.0 -1 18
+ 0.7 5 3 ping 64 ------- 1 5.0 1.0 -1 19
- 0.7 5 3 ping 64 ------- 1 5.0 1.0 -1 19
r 0.701005 0 2 ping 64 ------- 0 0.0 4.0 -1 18
+ 0.701005 2 3 ping 64 ------- 0 0.0 4.0 -1 18
r 0.701005 5 3 ping 64 ------- 1 5.0 1.0 -1 19
+ 0.701005 3 2 ping 64 ------- 1 5.0 1.0 -1 19
- 0.715405 2 3 ping 64 ------- 0 0.0 4.0 -1 12
- 0.715405 3 2 ping 64 ------- 1 5.0 1.0 -1 13
r 0.716405 2 3 ping 64 ------- 0 0.0 4.0 -1 10
+ 0.716405 3 4 ping 64 ------- 0 0.0 4.0 -1 10
- 0.716405 3 4 ping 64 ------- 0 0.0 4.0 -1 10
r 0.716405 3 2 ping 64 ------- 1 5.0 1.0 -1 11
+ 0.716405 2 1 ping 64 ------- 1 5.0 1.0 -1 11
- 0.716405 2 1 ping 64 ------- 1 5.0 1.0 -1 11
r 0.71741 3 4 ping 64 ------- 0 0.0 4.0 -1 10
+ 0.71741 4 3 ping 64 ------- 0 4.0 0.0 -1 20
- 0.71741 4 3 ping 64 ------- 0 4.0 0.0 -1 20
r 0.71741 2 1 ping 64 ------- 1 5.0 1.0 -1 11
+ 0.71741 1 2 ping 64 ------- 1 1.0 5.0 -1 21
- 0.71741 1 2 ping 64 ------- 1 1.0 5.0 -1 21
r 0.718415 4 3 ping 64 ------- 0 4.0 0.0 -1 20
+ 0.718415 3 2 ping 64 ------- 0 4.0 0.0 -1 20
r 0.718415 1 2 ping 64 ------- 1 1.0 5.0 -1 21
+ 0.718415 2 3 ping 64 ------- 1 1.0 5.0 -1 21
+ 0.8 0 2 ping 64 ------- 0 0.0 4.0 -1 22
- 0.8 0 2 ping 64 ------- 0 0.0 4.0 -1 22
+ 0.8 5 3 ping 64 ------- 1 5.0 1.0 -1 23
- 0.8 5 3 ping 64 ------- 1 5.0 1.0 -1 23
r 0.801005 0 2 ping 64 ------- 0 0.0 4.0 -1 22
+ 0.801005 2 3 ping 64 ------- 0 0.0 4.0 -1 22
r 0.801005 5 3 ping 64 ------- 1 5.0 1.0 -1 23
+ 0.801005 3 2 ping 64 ------- 1 5.0 1.0 -1 23
- 0.817805 2 3 ping 64 ------- 1 1.0 5.0 -1 15
- 0.817805 3 2 ping 64 ------- 0 4.0 0.0 -1 14
r 0.818805 2 3 ping 64 ------- 0 0.0 4.0 -1 12
+ 0.818805 3 4 ping 64 ------- 0 0.0 4.0 -1 12
- 0.818805 3 4 ping 64 ------- 0 0.0 4.0 -1 12
r 0.818805 3 2 ping 64 ------- 1 5.0 1.0 -1 13
+ 0.818805 2 1 ping 64 ------- 1 5.0 1.0 -1 13
- 0.818805 2 1 ping 64 ------- 1 5.0 1.0 -1 13
r 0.81981 3 4 ping 64 ------- 0 0.0 4.0 -1 12
+ 0.81981 4 3 ping 64 ------- 0 4.0 0.0 -1 24
- 0.81981 4 3 ping 64 ------- 0 4.0 0.0 -1 24
r 0.81981 2 1 ping 64 ------- 1 5.0 1.0 -1 13
+ 0.81981 1 2 ping 64 ------- 1 1.0 5.0 -1 25
- 0.81981 1 2 ping 64 ------- 1 1.0 5.0 -1 25
r 0.820815 4 3 ping 64 ------- 0 4.0 0.0 -1 24
+ 0.820815 3 2 ping 64 ------- 0 4.0 0.0 -1 24
r 0.820815 1 2 ping 64 ------- 1 1.0 5.0 -1 25
+ 0.820815 2 3 ping 64 ------- 1 1.0 5.0 -1 25
+ 0.9 0 2 ping 64 ------- 0 0.0 4.0 -1 26
- 0.9 0 2 ping 64 ------- 0 0.0 4.0 -1 26
+ 0.9 5 3 ping 64 ------- 1 5.0 1.0 -1 27
- 0.9 5 3 ping 64 ------- 1 5.0 1.0 -1 27
r 0.901005 0 2 ping 64 ------- 0 0.0 4.0 -1 26
+ 0.901005 2 3 ping 64 ------- 0 0.0 4.0 -1 26
r 0.901005 5 3 ping 64 ------- 1 5.0 1.0 -1 27
+ 0.901005 3 2 ping 64 ------- 1 5.0 1.0 -1 27
- 0.920205 2 3 ping 64 ------- 0 0.0 4.0 -1 16
- 0.920205 3 2 ping 64 ------- 1 5.0 1.0 -1 17
r 0.921205 2 3 ping 64 ------- 1 1.0 5.0 -1 15
+ 0.921205 3 5 ping 64 ------- 1 1.0 5.0 -1 15
d 0.921205 3 5 ping 64 ------- 1 1.0 5.0 -1 15
r 0.921205 3 2 ping 64 ------- 0 4.0 0.0 -1 14
+ 0.921205 2 0 ping 64 ------- 0 4.0 0.0 -1 14
- 0.921205 2 0 ping 64 ------- 0 4.0 0.0 -1 14
r 0.92221 2 0 ping 64 ------- 0 4.0 0.0 -1 14
+ 1 0 2 ping 64 ------- 0 0.0 4.0 -1 28
- 1 0 2 ping 64 ------- 0 0.0 4.0 -1 28
+ 1 5 3 ping 64 ------- 1 5.0 1.0 -1 29
- 1 5 3 ping 64 ------- 1 5.0 1.0 -1 29
r 1.001005 0 2 ping 64 ------- 0 0.0 4.0 -1 28
+ 1.001005 2 3 ping 64 ------- 0 0.0 4.0 -1 28
r 1.001005 5 3 ping 64 ------- 1 5.0 1.0 -1 29
+ 1.001005 3 2 ping 64 ------- 1 5.0 1.0 -1 29
- 1.022605 2 3 ping 64 ------- 0 0.0 4.0 -1 18
- 1.022605 3 2 ping 64 ------- 1 5.0 1.0 -1 19
r 1.023605 2 3 ping 64 ------- 0 0.0 4.0 -1 16
+ 1.023605 3 4 ping 64 ------- 0 0.0 4.0 -1 16
- 1.023605 3 4 ping 64 ------- 0 0.0 4.0 -1 16
r 1.023605 3 2 ping 64 ------- 1 5.0 1.0 -1 17
+ 1.023605 2 1 ping 64 ------- 1 5.0 1.0 -1 17
- 1.023605 2 1 ping 64 ------- 1 5.0 1.0 -1 17
r 1.02461 3 4 ping 64 ------- 0 0.0 4.0 -1 16
+ 1.02461 4 3 ping 64 ------- 0 4.0 0.0 -1 30
- 1.02461 4 3 ping 64 ------- 0 4.0 0.0 -1 30
r 1.02461 2 1 ping 64 ------- 1 5.0 1.0 -1 17
+ 1.02461 1 2 ping 64 ------- 1 1.0 5.0 -1 31
- 1.02461 1 2 ping 64 ------- 1 1.0 5.0 -1 31
r 1.025615 4 3 ping 64 ------- 0 4.0 0.0 -1 30
+ 1.025615 3 2 ping 64 ------- 0 4.0 0.0 -1 30
r 1.025615 1 2 ping 64 ------- 1 1.0 5.0 -1 31
+ 1.025615 2 3 ping 64 ------- 1 1.0 5.0 -1 31
+ 1.1 0 2 ping 64 ------- 0 0.0 4.0 -1 32
- 1.1 0 2 ping 64 ------- 0 0.0 4.0 -1 32
+ 1.1 5 3 ping 64 ------- 1 5.0 1.0 -1 33
- 1.1 5 3 ping 64 ------- 1 5.0 1.0 -1 33
r 1.101005 0 2 ping 64 ------- 0 0.0 4.0 -1 32
+ 1.101005 2 3 ping 64 ------- 0 0.0 4.0 -1 32
r 1.101005 5 3 ping 64 ------- 1 5.0 1.0 -1 33
+ 1.101005 3 2 ping 64 ------- 1 5.0 1.0 -1 33
- 1.125005 2 3 ping 64 ------- 1 1.0 5.0 -1 21
- 1.125005 3 2 ping 64 ------- 0 4.0 0.0 -1 20
r 1.126005 2 3 ping 64 ------- 0 0.0 4.0 -1 18
+ 1.126005 3 4 ping 64 ------- 0 0.0 4.0 -1 18
- 1.126005 3 4 ping 64 ------- 0 0.0 4.0 -1 18
r 1.126005 3 2 ping 64 ------- 1 5.0 1.0 -1 19
+ 1.126005 2 1 ping 64 ------- 1 5.0 1.0 -1 19
- 1.126005 2 1 ping 64 ------- 1 5.0 1.0 -1 19
r 1.12701 3 4 ping 64 ------- 0 0.0 4.0 -1 18
+ 1.12701 4 3 ping 64 ------- 0 4.0 0.0 -1 34
- 1.12701 4 3 ping 64 ------- 0 4.0 0.0 -1 34
r 1.12701 2 1 ping 64 ------- 1 5.0 1.0 -1 19
+ 1.12701 1 2 ping 64 ------- 1 1.0 5.0 -1 35
- 1.12701 1 2 ping 64 ------- 1 1.0 5.0 -1 35
r 1.128015 4 3 ping 64 ------- 0 4.0 0.0 -1 34
+ 1.128015 3 2 ping 64 ------- 0 4.0 0.0 -1 34
r 1.128015 1 2 ping 64 ------- 1 1.0 5.0 -1 35
+ 1.128015 2 3 ping 64 ------- 1 1.0 5.0 -1 35
+ 1.2 0 2 ping 64 ------- 0 0.0 4.0 -1 36
- 1.2 0 2 ping 64 ------- 0 0.0 4.0 -1 36
+ 1.2 5 3 ping 64 ------- 1 5.0 1.0 -1 37
- 1.2 5 3 ping 64 ------- 1 5.0 1.0 -1 37
r 1.201005 0 2 ping 64 ------- 0 0.0 4.0 -1 36
+ 1.201005 2 3 ping 64 ------- 0 0.0 4.0 -1 36
d 1.201005 2 3 ping 64 ------- 0 0.0 4.0 -1 36
r 1.201005 5 3 ping 64 ------- 1 5.0 1.0 -1 37
+ 1.201005 3 2 ping 64 ------- 1 5.0 1.0 -1 37
- 1.227405 2 3 ping 64 ------- 0 0.0 4.0 -1 22
- 1.227405 3 2 ping 64 ------- 1 5.0 1.0 -1 23
r 1.228405 2 3 ping 64 ------- 1 1.0 5.0 -1 21
+ 1.228405 3 5 ping 64 ------- 1 1.0 5.0 -1 21
d 1.228405 3 5 ping 64 ------- 1 1.0 5.0 -1 21
r 1.228405 3 2 ping 64 ------- 0 4.0 0.0 -1 20
+ 1.228405 2 0 ping 64 ------- 0 4.0 0.0 -1 20
- 1.228405 2 0 ping 64 ------- 0 4.0 0.0 -1 20
r 1.22941 2 0 ping 64 ------- 0 4.0 0.0 -1 20
+ 1.3 0 2 ping 64 ------- 0 0.0 4.0 -1 38
- 1.3 0 2 ping 64 ------- 0 0.0 4.0 -1 38
+ 1.3 5 3 ping 64 ------- 1 5.0 1.0 -1 39
- 1.3 5 3 ping 64 ------- 1 5.0 1.0 -1 39
r 1.301005 0 2 ping 64 ------- 0 0.0 4.0 -1 38
+ 1.301005 2 3 ping 64 ------- 0 0.0 4.0 -1 38
r 1.301005 5 3 ping 64 ------- 1 5.0 1.0 -1 39
+ 1.301005 3 2 ping 64 ------- 1 5.0 1.0 -1 39
- 1.329805 2 3 ping 64 ------- 1 1.0 5.0 -1 25
- 1.329805 3 2 ping 64 ------- 0 4.0 0.0 -1 24
r 1.330805 2 3 ping 64 ------- 0 0.0 4.0 -1 22
+ 1.330805 3 4 ping 64 ------- 0 0.0 4.0 -1 22
- 1.330805 3 4 ping 64 ------- 0 0.0 4.0 -1 22
r 1.330805 3 2 ping 64 ------- 1 5.0 1.0 -1 23
+ 1.330805 2 1 ping 64 ------- 1 5.0 1.0 -1 23
- 1.330805 2 1 ping 64 ------- 1 5.0 1.0 -1 23
r 1.33181 3 4 ping 64 ------- 0 0.0 4.0 -1 22
+ 1.33181 4 3 ping 64 ------- 0 4.0 0.0 -1 40
- 1.33181 4 3 ping 64 ------- 0 4.0 0.0 -1 40
r 1.33181 2 1 ping 64 ------- 1 5.0 1.0 -1 23
+ 1.33181 1 2 ping 64 ------- 1 1.0 5.0 -1 41
- 1.33181 1 2 ping 64 ------- 1 1.0 5.0 -1 41
r 1.332815 4 3 ping 64 ------- 0 4.0 0.0 -1 40
+ 1.332815 3 2 ping 64 ------- 0 4.0 0.0 -1 40
r 1.332815 1 2 ping 64 ------- 1 1.0 5.0 -1 41
+ 1.332815 2 3 ping 64 ------- 1 1.0 5.0 -1 41
+ 1.4 0 2 ping 64 ------- 0 0.0 4.0 -1 42
- 1.4 0 2 ping 64 ------- 0 0.0 4.0 -1 42
+ 1.4 5 3 ping 64 ------- 1 5.0 1.0 -1 43
- 1.4 5 3 ping 64 ------- 1 5.0 1.0 -1 43
r 1.401005 0 2 ping 64 ------- 0 0.0 4.0 -1 42
+ 1.401005 2 3 ping 64 ------- 0 0.0 4.0 -1 42
d 1.401005 2 3 ping 64 ------- 0 0.0 4.0 -1 42
r 1.401005 5 3 ping 64 ------- 1 5.0 1.0 -1 43
+ 1.401005 3 2 ping 64 ------- 1 5.0 1.0 -1 43
- 1.432205 2 3 ping 64 ------- 0 0.0 4.0 -1 26
- 1.432205 3 2 ping 64 ------- 1 5.0 1.0 -1 27
r 1.433205 2 3 ping 64 ------- 1 1.0 5.0 -1 25
+ 1.433205 3 5 ping 64 ------- 1 1.0 5.0 -1 25
d 1.433205 3 5 ping 64 ------- 1 1.0 5.0 -1 25
r 1.433205 3 2 ping 64 ------- 0 4.0 0.0 -1 24
+ 1.433205 2 0 ping 64 ------- 0 4.0 0.0 -1 24
- 1.433205 2 0 ping 64 ------- 0 4.0 0.0 -1 24
r 1.43421 2 0 ping 64 ------- 0 4.0 0.0 -1 24
+ 1.5 0 2 ping 64 ------- 0 0.0 4.0 -1 44
- 1.5 0 2 ping 64 ------- 0 0.0 4.0 -1 44
+ 1.5 5 3 ping 64 ------- 1 5.0 1.0 -1 45
- 1.5 5 3 ping 64 ------- 1 5.0 1.0 -1 45
r 1.501005 0 2 ping 64 ------- 0 0.0 4.0 -1 44
+ 1.501005 2 3 ping 64 ------- 0 0.0 4.0 -1 44
r 1.501005 5 3 ping 64 ------- 1 5.0 1.0 -1 45
+ 1.501005 3 2 ping 64 ------- 1 5.0 1.0 -1 45
- 1.534605 2 3 ping 64 ------- 0 0.0 4.0 -1 28
- 1.534605 3 2 ping 64 ------- 1 5.0 1.0 -1 29
r 1.535605 2 3 ping 64 ------- 0 0.0 4.0 -1 26
+ 1.535605 3 4 ping 64 ------- 0 0.0 4.0 -1 26
- 1.535605 3 4 ping 64 ------- 0 0.0 4.0 -1 26
r 1.535605 3 2 ping 64 ------- 1 5.0 1.0 -1 27
+ 1.535605 2 1 ping 64 ------- 1 5.0 1.0 -1 27
- 1.535605 2 1 ping 64 ------- 1 5.0 1.0 -1 27
r 1.53661 3 4 ping 64 ------- 0 0.0 4.0 -1 26
+ 1.53661 4 3 ping 64 ------- 0 4.0 0.0 -1 46
- 1.53661 4 3 ping 64 ------- 0 4.0 0.0 -1 46
r 1.53661 2 1 ping 64 ------- 1 5.0 1.0 -1 27
+ 1.53661 1 2 ping 64 ------- 1 1.0 5.0 -1 47
- 1.53661 1 2 ping 64 ------- 1 1.0 5.0 -1 47
r 1.537615 4 3 ping 64 ------- 0 4.0 0.0 -1 46
+ 1.537615 3 2 ping 64 ------- 0 4.0 0.0 -1 46
r 1.537615 1 2 ping 64 ------- 1 1.0 5.0 -1 47
+ 1.537615 2 3 ping 64 ------- 1 1.0 5.0 -1 47
+ 1.6 0 2 ping 64 ------- 0 0.0 4.0 -1 48
- 1.6 0 2 ping 64 ------- 0 0.0 4.0 -1 48
+ 1.6 5 3 ping 64 ------- 1 5.0 1.0 -1 49
- 1.6 5 3 ping 64 ------- 1 5.0 1.0 -1 49
r 1.601005 0 2 ping 64 ------- 0 0.0 4.0 -1 48
+ 1.601005 2 3 ping 64 ------- 0 0.0 4.0 -1 48
d 1.601005 2 3 ping 64 ------- 0 0.0 4.0 -1 48
r 1.601005 5 3 ping 64 ------- 1 5.0 1.0 -1 49
+ 1.601005 3 2 ping 64 ------- 1 5.0 1.0 -1 49
- 1.637005 2 3 ping 64 ------- 1 1.0 5.0 -1 31
- 1.637005 3 2 ping 64 ------- 0 4.0 0.0 -1 30
r 1.638005 2 3 ping 64 ------- 0 0.0 4.0 -1 28
+ 1.638005 3 4 ping 64 ------- 0 0.0 4.0 -1 28
- 1.638005 3 4 ping 64 ------- 0 0.0 4.0 -1 28
r 1.638005 3 2 ping 64 ------- 1 5.0 1.0 -1 29
+ 1.638005 2 1 ping 64 ------- 1 5.0 1.0 -1 29
- 1.638005 2 1 ping 64 ------- 1 5.0 1.0 -1 29
r 1.63901 3 4 ping 64 ------- 0 0.0 4.0 -1 28
+ 1.63901 4 3 ping 64 ------- 0 4.0 0.0 -1 50
- 1.63901 4 3 ping 64 ------- 0 4.0 0.0 -1 50
r 1.63901 2 1 ping 64 ------- 1 5.0 1.0 -1 29
+ 1.63901 1 2 ping 64 ------- 1 1.0 5.0 -1 51
- 1.63901 1 2 ping 64 ------- 1 1.0 5.0 -1 51
r 1.640015 4 3 ping 64 ------- 0 4.0 0.0 -1 50
+ 1.640015 3 2 ping 64 ------- 0 4.0 0.0 -1 50
r 1.640015 1 2 ping 64 ------- 1 1.0 5.0 -1 51
+ 1.640015 2 3 ping 64 ------- 1 1.0 5.0 -1 51
+ 1.7 0 2 ping 64 ------- 0 0.0 4.0 -1 52
- 1.7 0 2 ping 64 ------- 0 0.0 4.0 -1 52
+ 1.7 5 3 ping 64 ------- 1 5.0 1.0 -1 53
- 1.7 5 3 ping 64 ------- 1 5.0 1.0 -1 53
r 1.701005 0 2 ping 64 ------- 0 0.0 4.0 -1 52
+ 1.701005 2 3 ping 64 ------- 0 0.0 4.0 -1 52
d 1.701005 2 3 ping 64 ------- 0 0.0 4.0 -1 52
r 1.701005 5 3 ping 64 ------- 1 5.0 1.0 -1 53
+ 1.701005 3 2 ping 64 ------- 1 5.0 1.0 -1 53
- 1.739405 2 3 ping 64 ------- 0 0.0 4.0 -1 32
- 1.739405 3 2 ping 64 ------- 1 5.0 1.0 -1 33
r 1.740405 2 3 ping 64 ------- 1 1.0 5.0 -1 31
+ 1.740405 3 5 ping 64 ------- 1 1.0 5.0 -1 31
d 1.740405 3 5 ping 64 ------- 1 1.0 5.0 -1 31
r 1.740405 3 2 ping 64 ------- 0 4.0 0.0 -1 30
+ 1.740405 2 0 ping 64 ------- 0 4.0 0.0 -1 30
- 1.740405 2 0 ping 64 ------- 0 4.0 0.0 -1 30
r 1.74141 2 0 ping 64 ------- 0 4.0 0.0 -1 30
+ 1.8 0 2 ping 64 ------- 0 0.0 4.0 -1 54
- 1.8 0 2 ping 64 ------- 0 0.0 4.0 -1 54
+ 1.8 5 3 ping 64 ------- 1 5.0 1.0 -1 55
- 1.8 5 3 ping 64 ------- 1 5.0 1.0 -1 55
r 1.801005 0 2 ping 64 ------- 0 0.0 4.0 -1 54
+ 1.801005 2 3 ping 64 ------- 0 0.0 4.0 -1 54
r 1.801005 5 3 ping 64 ------- 1 5.0 1.0 -1 55
+ 1.801005 3 2 ping 64 ------- 1 5.0 1.0 -1 55
- 1.841805 2 3 ping 64 ------- 1 1.0 5.0 -1 35
- 1.841805 3 2 ping 64 ------- 0 4.0 0.0 -1 34
r 1.842805 2 3 ping 64 ------- 0 0.0 4.0 -1 32
+ 1.842805 3 4 ping 64 ------- 0 0.0 4.0 -1 32
- 1.842805 3 4 ping 64 ------- 0 0.0 4.0 -1 32
r 1.842805 3 2 ping 64 ------- 1 5.0 1.0 -1 33
+ 1.842805 2 1 ping 64 ------- 1 5.0 1.0 -1 33
- 1.842805 2 1 ping 64 ------- 1 5.0 1.0 -1 33
r 1.84381 3 4 ping 64 ------- 0 0.0 4.0 -1 32
+ 1.84381 4 3 ping 64 ------- 0 4.0 0.0 -1 56
- 1.84381 4 3 ping 64 ------- 0 4.0 0.0 -1 56
r 1.84381 2 1 ping 64 ------- 1 5.0 1.0 -1 33
+ 1.84381 1 2 ping 64 ------- 1 1.0 5.0 -1 57
- 1.84381 1 2 ping 64 ------- 1 1.0 5.0 -1 57
r 1.844815 4 3 ping 64 ------- 0 4.0 0.0 -1 56
+ 1.844815 3 2 ping 64 ------- 0 4.0 0.0 -1 56
r 1.844815 1 2 ping 64 ------- 1 1.0 5.0 -1 57
+ 1.844815 2 3 ping 64 ------- 1 1.0 5.0 -1 57
+ 1.9 0 2 ping 64 ------- 0 0.0 4.0 -1 58
- 1.9 0 2 ping 64 ------- 0 0.0 4.0 -1 58
+ 1.9 5 3 ping 64 ------- 1 5.0 1.0 -1 59
- 1.9 5 3 ping 64 ------- 1 5.0 1.0 -1 59
r 1.901005 0 2 ping 64 ------- 0 0.0 4.0 -1 58
+ 1.901005 2 3 ping 64 ------- 0 0.0 4.0 -1 58
d 1.901005 2 3 ping 64 ------- 0 0.0 4.0 -1 58
r 1.901005 5 3 ping 64 ------- 1 5.0 1.0 -1 59
+ 1.901005 3 2 ping 64 ------- 1 5.0 1.0 -1 59
- 1.944205 2 3 ping 64 ------- 0 0.0 4.0 -1 38
- 1.944205 3 2 ping 64 ------- 1 5.0 1.0 -1 37
r 1.945205 2 3 ping 64 ------- 1 1.0 5.0 -1 35
+ 1.945205 3 5 ping 64 ------- 1 1.0 5.0 -1 35
d 1.945205 3 5 ping 64 ------- 1 1.0 5.0 -1 35
r 1.945205 3 2 ping 64 ------- 0 4.0 0.0 -1 34
+ 1.945205 2 0 ping 64 ------- 0 4.0 0.0 -1 34
- 1.945205 2 0 ping 64 ------- 0 4.0 0.0 -1 34
r 1.94621 2 0 ping 64 ------- 0 4.0 0.0 -1 34
+ 2 0 2 ping 64 ------- 0 0.0 4.0 -1 60
- 2 0 2 ping 64 ------- 0 0.0 4.0 -1 60
+ 2 5 3 ping 64 ------- 1 5.0 1.0 -1 61
- 2 5 3 ping 64 ------- 1 5.0 1.0 -1 61
r 2.001005 0 2 ping 64 ------- 0 0.0 4.0 -1 60
+ 2.001005 2 3 ping 64 ------- 0 0.0 4.0 -1 60
r 2.001005 5 3 ping 64 ------- 1 5.0 1.0 -1 61
+ 2.001005 3 2 ping 64 ------- 1 5.0 1.0 -1 61
- 2.046605 2 3 ping 64 ------- 1 1.0 5.0 -1 41
- 2.046605 3 2 ping 64 ------- 1 5.0 1.0 -1 39
r 2.047605 2 3 ping 64 ------- 0 0.0 4.0 -1 38
+ 2.047605 3 4 ping 64 ------- 0 0.0 4.0 -1 38
- 2.047605 3 4 ping 64 ------- 0 0.0 4.0 -1 38
r 2.047605 3 2 ping 64 ------- 1 5.0 1.0 -1 37
+ 2.047605 2 1 ping 64 ------- 1 5.0 1.0 -1 37
- 2.047605 2 1 ping 64 ------- 1 5.0 1.0 -1 37
r 2.04861 3 4 ping 64 ------- 0 0.0 4.0 -1 38
+ 2.04861 4 3 ping 64 ------- 0 4.0 0.0 -1 62
- 2.04861 4 3 ping 64 ------- 0 4.0 0.0 -1 62
r 2.04861 2 1 ping 64 ------- 1 5.0 1.0 -1 37
+ 2.04861 1 2 ping 64 ------- 1 1.0 5.0 -1 63
- 2.04861 1 2 ping 64 ------- 1 1.0 5.0 -1 63
r 2.049615 4 3 ping 64 ------- 0 4.0 0.0 -1 62
+ 2.049615 3 2 ping 64 ------- 0 4.0 0.0 -1 62
r 2.049615 1 2 ping 64 ------- 1 1.0 5.0 -1 63
+ 2.049615 2 3 ping 64 ------- 1 1.0 5.0 -1 63
+ 2.1 0 2 ping 64 ------- 0 0.0 4.0 -1 64
- 2.1 0 2 ping 64 ------- 0 0.0 4.0 -1 64
+ 2.1 5 3 ping 64 ------- 1 5.0 1.0 -1 65
- 2.1 5 3 ping 64 ------- 1 5.0 1.0 -1 65
r 2.101005 0 2 ping 64 ------- 0 0.0 4.0 -1 64
+ 2.101005 2 3 ping 64 ------- 0 0.0 4.0 -1 64
d 2.101005 2 3 ping 64 ------- 0 0.0 4.0 -1 64
r 2.101005 5 3 ping 64 ------- 1 5.0 1.0 -1 65
+ 2.101005 3 2 ping 64 ------- 1 5.0 1.0 -1 65
- 2.149005 2 3 ping 64 ------- 0 0.0 4.0 -1 44
- 2.149005 3 2 ping 64 ------- 0 4.0 0.0 -1 40
r 2.150005 2 3 ping 64 ------- 1 1.0 5.0 -1 41
+ 2.150005 3 5 ping 64 ------- 1 1.0 5.0 -1 41
d 2.150005 3 5 ping 64 ------- 1 1.0 5.0 -1 41
r 2.150005 3 2 ping 64 ------- 1 5.0 1.0 -1 39
+ 2.150005 2 1 ping 64 ------- 1 5.0 1.0 -1 39
- 2.150005 2 1 ping 64 ------- 1 5.0 1.0 -1 39
r 2.15101 2 1 ping 64 ------- 1 5.0 1.0 -1 39
+ 2.15101 1 2 ping 64 ------- 1 1.0 5.0 -1 66
- 2.15101 1 2 ping 64 ------- 1 1.0 5.0 -1 66
r 2.152015 1 2 ping 64 ------- 1 1.0 5.0 -1 66
+ 2.152015 2 3 ping 64 ------- 1 1.0 5.0 -1 66
+ 2.2 0 2 ping 64 ------- 0 0.0 4.0 -1 67
- 2.2 0 2 ping 64 ------- 0 0.0 4.0 -1 67
+ 2.2 5 3 ping 64 ------- 1 5.0 1.0 -1 68
- 2.2 5 3 ping 64 ------- 1 5.0 1.0 -1 68
r 2.201005 0 2 ping 64 ------- 0 0.0 4.0 -1 67
+ 2.201005 2 3 ping 64 ------- 0 0.0 4.0 -1 67
d 2.201005 2 3 ping 64 ------- 0 0.0 4.0 -1 67
r 2.201005 5 3 ping 64 ------- 1 5.0 1.0 -1 68
+ 2.201005 3 2 ping 64 ------- 1 5.0 1.0 -1 68
- 2.251405 2 3 ping 64 ------- 1 1.0 5.0 -1 47
- 2.251405 3 2 ping 64 ------- 1 5.0 1.0 -1 43
r 2.252405 2 3 ping 64 ------- 0 0.0 4.0 -1 44
+ 2.252405 3 4 ping 64 ------- 0 0.0 4.0 -1 44
- 2.252405 3 4 ping 64 ------- 0 0.0 4.0 -1 44
r 2.252405 3 2 ping 64 ------- 0 4.0 0.0 -1 40
+ 2.252405 2 0 ping 64 ------- 0 4.0 0.0 -1 40
- 2.252405 2 0 ping 64 ------- 0 4.0 0.0 -1 40
r 2.25341 3 4 ping 64 ------- 0 0.0 4.0 -1 44
+ 2.25341 4 3 ping 64 ------- 0 4.0 0.0 -1 69
- 2.25341 4 3 ping 64 ------- 0 4.0 0.0 -1 69
r 2.25341 2 0 ping 64 ------- 0 4.0 0.0 -1 40
r 2.254415 4 3 ping 64 ------- 0 4.0 0.0 -1 69
+ 2.254415 3 2 ping 64 ------- 0 4.0 0.0 -1 69
+ 2.3 0 2 ping 64 ------- 0 0.0 4.0 -1 70
- 2.3 0 2 ping 64 ------- 0 0.0 4.0 -1 70
+ 2.3 5 3 ping 64 ------- 1 5.0 1.0 -1 71
- 2.3 5 3 ping 64 ------- 1 5.0 1.0 -1 71
r 2.301005 0 2 ping 64 ------- 0 0.0 4.0 -1 70
+ 2.301005 2 3 ping 64 ------- 0 0.0 4.0 -1 70
r 2.301005 5 3 ping 64 ------- 1 5.0 1.0 -1 71
+ 2.301005 3 2 ping 64 ------- 1 5.0 1.0 -1 71
- 2.353805 2 3 ping 64 ------- 1 1.0 5.0 -1 51
- 2.353805 3 2 ping 64 ------- 1 5.0 1.0 -1 45
r 2.354805 2 3 ping 64 ------- 1 1.0 5.0 -1 47
+ 2.354805 3 5 ping 64 ------- 1 1.0 5.0 -1 47
d 2.354805 3 5 ping 64 ------- 1 1.0 5.0 -1 47
r 2.354805 3 2 ping 64 ------- 1 5.0 1.0 -1 43
+ 2.354805 2 1 ping 64 ------- 1 5.0 1.0 -1 43
- 2.354805 2 1 ping 64 ------- 1 5.0 1.0 -1 43
r 2.35581 2 1 ping 64 ------- 1 5.0 1.0 -1 43
+ 2.35581 1 2 ping 64 ------- 1 1.0 5.0 -1 72
- 2.35581 1 2 ping 64 ------- 1 1.0 5.0 -1 72
r 2.356815 1 2 ping 64 ------- 1 1.0 5.0 -1 72
+ 2.356815 2 3 ping 64 ------- 1 1.0 5.0 -1 72
+ 2.4 0 2 ping 64 ------- 0 0.0 4.0 -1 73
- 2.4 0 2 ping 64 ------- 0 0.0 4.0 -1 73
+ 2.4 5 3 ping 64 ------- 1 5.0 1.0 -1 74
- 2.4 5 3 ping 64 ------- 1 5.0 1.0 -1 74
r 2.401005 0 2 ping 64 ------- 0 0.0 4.0 -1 73
+ 2.401005 2 3 ping 64 ------- 0 0.0 4.0 -1 73
d 2.401005 2 3 ping 64 ------- 0 0.0 4.0 -1 73
r 2.401005 5 3 ping 64 ------- 1 5.0 1.0 -1 74
+ 2.401005 3 2 ping 64 ------- 1 5.0 1.0 -1 74
- 2.456205 2 3 ping 64 ------- 0 0.0 4.0 -1 54
- 2.456205 3 2 ping 64 ------- 0 4.0 0.0 -1 46
r 2.457205 2 3 ping 64 ------- 1 1.0 5.0 -1 51
+ 2.457205 3 5 ping 64 ------- 1 1.0 5.0 -1 51
d 2.457205 3 5 ping 64 ------- 1 1.0 5.0 -1 51
r 2.457205 3 2 ping 64 ------- 1 5.0 1.0 -1 45
+ 2.457205 2 1 ping 64 ------- 1 5.0 1.0 -1 45
- 2.457205 2 1 ping 64 ------- 1 5.0 1.0 -1 45
r 2.45821 2 1 ping 64 ------- 1 5.0 1.0 -1 45
+ 2.45821 1 2 ping 64 ------- 1 1.0 5.0 -1 75
- 2.45821 1 2 ping 64 ------- 1 1.0 5.0 -1 75
r 2.459215 1 2 ping 64 ------- 1 1.0 5.0 -1 75
+ 2.459215 2 3 ping 64 ------- 1 1.0 5.0 -1 75
+ 2.5 0 2 ping 64 ------- 0 0.0 4.0 -1 76
- 2.5 0 2 ping 64 ------- 0 0.0 4.0 -1 76
+ 2.5 5 3 ping 64 ------- 1 5.0 1.0 -1 77
- 2.5 5 3 ping 64 ------- 1 5.0 1.0 -1 77
r 2.501005 0 2 ping 64 ------- 0 0.0 4.0 -1 76
+ 2.501005 2 3 ping 64 ------- 0 0.0 4.0 -1 76
d 2.501005 2 3 ping 64 ------- 0 0.0 4.0 -1 76
r 2.501005 5 3 ping 64 ------- 1 5.0 1.0 -1 77
+ 2.501005 3 2 ping 64 ------- 1 5.0 1.0 -1 77
- 2.558605 2 3 ping 64 ------- 1 1.0 5.0 -1 57
- 2.558605 3 2 ping 64 ------- 1 5.0 1.0 -1 49
r 2.559605 2 3 ping 64 ------- 0 0.0 4.0 -1 54
+ 2.559605 3 4 ping 64 ------- 0 0.0 4.0 -1 54
- 2.559605 3 4 ping 64 ------- 0 0.0 4.0 -1 54
r 2.559605 3 2 ping 64 ------- 0 4.0 0.0 -1 46
+ 2.559605 2 0 ping 64 ------- 0 4.0 0.0 -1 46
- 2.559605 2 0 ping 64 ------- 0 4.0 0.0 -1 46
r 2.56061 3 4 ping 64 ------- 0 0.0 4.0 -1 54
+ 2.56061 4 3 ping 64 ------- 0 4.0 0.0 -1 78
- 2.56061 4 3 ping 64 ------- 0 4.0 0.0 -1 78
r 2.56061 2 0 ping 64 ------- 0 4.0 0.0 -1 46
r 2.561615 4 3 ping 64 ------- 0 4.0 0.0 -1 78
+ 2.561615 3 2 ping 64 ------- 0 4.0 0.0 -1 78
+ 2.6 0 2 ping 64 ------- 0 0.0 4.0 -1 79
- 2.6 0 2 ping 64 ------- 0 0.0 4.0 -1 79
+ 2.6 5 3 ping 64 ------- 1 5.0 1.0 -1 80
- 2.6 5 3 ping 64 ------- 1 5.0 1.0 -1 80
r 2.601005 0 2 ping 64 ------- 0 0.0 4.0 -1 79
+ 2.601005 2 3 ping 64 ------- 0 0.0 4.0 -1 79
r 2.601005 5 3 ping 64 ------- 1 5.0 1.0 -1 80
+ 2.601005 3 2 ping 64 ------- 1 5.0 1.0 -1 80
- 2.661005 2 3 ping 64 ------- 0 0.0 4.0 -1 60
- 2.661005 3 2 ping 64 ------- 0 4.0 0.0 -1 50
r 2.662005 2 3 ping 64 ------- 1 1.0 5.0 -1 57
+ 2.662005 3 5 ping 64 ------- 1 1.0 5.0 -1 57
d 2.662005 3 5 ping 64 ------- 1 1.0 5.0 -1 57
r 2.662005 3 2 ping 64 ------- 1 5.0 1.0 -1 49
+ 2.662005 2 1 ping 64 ------- 1 5.0 1.0 -1 49
- 2.662005 2 1 ping 64 ------- 1 5.0 1.0 -1 49
r 2.66301 2 1 ping 64 ------- 1 5.0 1.0 -1 49
+ 2.66301 1 2 ping 64 ------- 1 1.0 5.0 -1 81
- 2.66301 1 2 ping 64 ------- 1 1.0 5.0 -1 81
r 2.664015 1 2 ping 64 ------- 1 1.0 5.0 -1 81
+ 2.664015 2 3 ping 64 ------- 1 1.0 5.0 -1 81
+ 2.7 0 2 ping 64 ------- 0 0.0 4.0 -1 82
- 2.7 0 2 ping 64 ------- 0 0.0 4.0 -1 82
+ 2.7 5 3 ping 64 ------- 1 5.0 1.0 -1 83
- 2.7 5 3 ping 64 ------- 1 5.0 1.0 -1 83
r 2.701005 0 2 ping 64 ------- 0 0.0 4.0 -1 82
+ 2.701005 2 3 ping 64 ------- 0 0.0 4.0 -1 82
d 2.701005 2 3 ping 64 ------- 0 0.0 4.0 -1 82
r 2.701005 5 3 ping 64 ------- 1 5.0 1.0 -1 83
+ 2.701005 3 2 ping 64 ------- 1 5.0 1.0 -1 83
- 2.763405 2 3 ping 64 ------- 1 1.0 5.0 -1 63
- 2.763405 3 2 ping 64 ------- 1 5.0 1.0 -1 53
r 2.764405 2 3 ping 64 ------- 0 0.0 4.0 -1 60
+ 2.764405 3 4 ping 64 ------- 0 0.0 4.0 -1 60
- 2.764405 3 4 ping 64 ------- 0 0.0 4.0 -1 60
r 2.764405 3 2 ping 64 ------- 0 4.0 0.0 -1 50
+ 2.764405 2 0 ping 64 ------- 0 4.0 0.0 -1 50
- 2.764405 2 0 ping 64 ------- 0 4.0 0.0 -1 50
r 2.76541 3 4 ping 64 ------- 0 0.0 4.0 -1 60
+ 2.76541 4 3 ping 64 ------- 0 4.0 0.0 -1 84
- 2.76541 4 3 ping 64 ------- 0 4.0 0.0 -1 84
r 2.76541 2 0 ping 64 ------- 0 4.0 0.0 -1 50
r 2.766415 4 3 ping 64 ------- 0 4.0 0.0 -1 84
+ 2.766415 3 2 ping 64 ------- 0 4.0 0.0 -1 84
+ 2.8 0 2 ping 64 ------- 0 0.0 4.0 -1 85
- 2.8 0 2 ping 64 ------- 0 0.0 4.0 -1 85
+ 2.8 5 3 ping 64 ------- 1 5.0 1.0 -1 86
- 2.8 5 3 ping 64 ------- 1 5.0 1.0 -1 86
r 2.801005 0 2 ping 64 ------- 0 0.0 4.0 -1 85
+ 2.801005 2 3 ping 64 ------- 0 0.0 4.0 -1 85
r 2.801005 5 3 ping 64 ------- 1 5.0 1.0 -1 86
+ 2.801005 3 2 ping 64 ------- 1 5.0 1.0 -1 86
- 2.865805 2 3 ping 64 ------- 1 1.0 5.0 -1 66
- 2.865805 3 2 ping 64 ------- 1 5.0 1.0 -1 55
r 2.866805 2 3 ping 64 ------- 1 1.0 5.0 -1 63
+ 2.866805 3 5 ping 64 ------- 1 1.0 5.0 -1 63
d 2.866805 3 5 ping 64 ------- 1 1.0 5.0 -1 63
r 2.866805 3 2 ping 64 ------- 1 5.0 1.0 -1 53
+ 2.866805 2 1 ping 64 ------- 1 5.0 1.0 -1 53
- 2.866805 2 1 ping 64 ------- 1 5.0 1.0 -1 53
r 2.86781 2 1 ping 64 ------- 1 5.0 1.0 -1 53
+ 2.86781 1 2 ping 64 ------- 1 1.0 5.0 -1 87
- 2.86781 1 2 ping 64 ------- 1 1.0 5.0 -1 87
r 2.868815 1 2 ping 64 ------- 1 1.0 5.0 -1 87
+ 2.868815 2 3 ping 64 ------- 1 1.0 5.0 -1 87
+ 2.9 0 2 ping 64 ------- 0 0.0 4.0 -1 88
- 2.9 0 2 ping 64 ------- 0 0.0 4.0 -1 88
+ 2.9 5 3 ping 64 ------- 1 5.0 1.0 -1 89
- 2.9 5 3 ping 64 ------- 1 5.0 1.0 -1 89
r 2.901005 0 2 ping 64 ------- 0 0.0 4.0 -1 88
+ 2.901005 2 3 ping 64 ------- 0 0.0 4.0 -1 88
d 2.901005 2 3 ping 64 ------- 0 0.0 4.0 -1 88
r 2.901005 5 3 ping 64 ------- 1 5.0 1.0 -1 89
+ 2.901005 3 2 ping 64 ------- 1 5.0 1.0 -1 89
- 2.968205 2 3 ping 64 ------- 0 0.0 4.0 -1 70
- 2.968205 3 2 ping 64 ------- 0 4.0 0.0 -1 56
r 2.969205 2 3 ping 64 ------- 1 1.0 5.0 -1 66
+ 2.969205 3 5 ping 64 ------- 1 1.0 5.0 -1 66
d 2.969205 3 5 ping 64 ------- 1 1.0 5.0 -1 66
r 2.969205 3 2 ping 64 ------- 1 5.0 1.0 -1 55
+ 2.969205 2 1 ping 64 ------- 1 5.0 1.0 -1 55
- 2.969205 2 1 ping 64 ------- 1 5.0 1.0 -1 55
r 2.97021 2 1 ping 64 ------- 1 5.0 1.0 -1 55
+ 2.97021 1 2 ping 64 ------- 1 1.0 5.0 -1 90
- 2.97021 1 2 ping 64 ------- 1 1.0 5.0 -1 90
r 2.971215 1 2 ping 64 ------- 1 1.0 5.0 -1 90
+ 2.971215 2 3 ping 64 ------- 1 1.0 5.0 -1 90
