V -t * -v 1.0a5 -a 0
A -t * -n 1 -p 0 -o 0x7fffffff -c 30 -a 1
A -t * -h 1 -m 1073741823 -s 0
c -t * -i 4 -n Azure
c -t * -i 0 -n Red
c -t * -i 1 -n Green
c -t * -i 2 -n Coral
c -t * -i 3 -n Blue
n -t * -a 0 -s 0 -S UP -v circle -c black -i black
n -t * -a 1 -s 1 -S UP -v circle -c black -i black
n -t * -a 2 -s 2 -S UP -v circle -c black -i black
X -t * -n 3 -r 0.5Mb -D 40ms -o left
L -t * -s 3 -d 0 -o up
L -t * -s 3 -d 1 -o down
L -t * -s 3 -d 2 -o up
h -t 0.1 -s 1 -d 3 -p tcp -e 40 -c 0 -i 0 -a 0 -x {1.0 2.0 0 ------- null}
h -t 0.1 -s 0 -d 3 -p tcp -e 40 -c 1 -i 1 -a 1 -x {0.0 2.1 0 ------- null}
+ -t 0.14 -s 1 -d 3 -p tcp -e 40 -c 0 -i 0 -a 0 -x {1.0 2.0 0 ------- null}
- -t 0.14 -s 1 -d 3 -p tcp -e 40 -c 0 -i 0 -a 0 -x {1.0 2.0 0 ------- null}
h -t 0.14 -s 1 -d 3 -p tcp -e 40 -c 0 -i 0 -a 0 -x {1.0 2.0 -1 ------- null}
+ -t 0.14 -s 0 -d 3 -p tcp -e 40 -c 1 -i 1 -a 1 -x {0.0 2.1 0 ------- null}
- -t 0.14 -s 0 -d 3 -p tcp -e 40 -c 1 -i 1 -a 1 -x {0.0 2.1 0 ------- null}
h -t 0.14 -s 0 -d 3 -p tcp -e 40 -c 1 -i 1 -a 1 -x {0.0 2.1 -1 ------- null}
d -t 0.140004 -s 0 -d 3 -p tcp -e 40 -c 0 -i 0 -a 0 -x {1.0 2.0 0 ------- null}
d -t 0.140004 -s 1 -d 3 -p tcp -e 40 -c 1 -i 1 -a 1 -x {0.0 2.1 0 ------- null}
r -t 0.180004 -s 3 -d 2 -p tcp -e 40 -c 0 -i 0 -a 0 -x {1.0 2.0 0 ------- null}
h -t 0.180004 -s 2 -d 3 -p ack -e 40 -c 0 -i 2 -a 0 -x {2.0 1.0 0 ------- null}
r -t 0.180004 -s 3 -d 2 -p tcp -e 40 -c 1 -i 1 -a 1 -x {0.0 2.1 0 ------- null}
h -t 0.180004 -s 2 -d 3 -p ack -e 40 -c 1 -i 3 -a 1 -x {2.1 0.0 0 ------- null}
+ -t 0.220004 -s 2 -d 3 -p ack -e 40 -c 0 -i 2 -a 0 -x {2.0 1.0 0 ------- null}
- -t 0.220004 -s 2 -d 3 -p ack -e 40 -c 0 -i 2 -a 0 -x {2.0 1.0 0 ------- null}
h -t 0.220004 -s 2 -d 3 -p ack -e 40 -c 0 -i 2 -a 0 -x {2.0 1.0 -1 ------- null}
+ -t 0.220004 -s 2 -d 3 -p ack -e 40 -c 1 -i 3 -a 1 -x {2.1 0.0 0 ------- null}
d -t 0.220008 -s 0 -d 3 -p ack -e 40 -c 0 -i 2 -a 0 -x {2.0 1.0 0 ------- null}
- -t 0.22042 -s 2 -d 3 -p ack -e 40 -c 1 -i 3 -a 1 -x {2.1 0.0 0 ------- null}
h -t 0.22042 -s 2 -d 3 -p ack -e 40 -c 1 -i 3 -a 1 -x {2.1 0.0 -1 ------- null}
d -t 0.220424 -s 1 -d 3 -p ack -e 40 -c 1 -i 3 -a 1 -x {2.1 0.0 0 ------- null}
r -t 0.260008 -s 3 -d 1 -p ack -e 40 -c 0 -i 2 -a 0 -x {2.0 1.0 0 ------- null}
h -t 0.260008 -s 1 -d 3 -p tcp -e 1040 -c 0 -i 4 -a 0 -x {1.0 2.0 1 ------- null}
h -t 0.260008 -s 1 -d 3 -p tcp -e 1040 -c 0 -i 5 -a 0 -x {1.0 2.0 2 ------- null}
r -t 0.260424 -s 3 -d 0 -p ack -e 40 -c 1 -i 3 -a 1 -x {2.1 0.0 0 ------- null}
h -t 0.260424 -s 0 -d 3 -p tcp -e 1040 -c 1 -i 6 -a 1 -x {0.0 2.1 1 ------- null}
h -t 0.260424 -s 0 -d 3 -p tcp -e 1040 -c 1 -i 7 -a 1 -x {0.0 2.1 2 ------- null}
+ -t 0.300008 -s 1 -d 3 -p tcp -e 1040 -c 0 -i 4 -a 0 -x {1.0 2.0 1 ------- null}
- -t 0.300008 -s 1 -d 3 -p tcp -e 1040 -c 0 -i 4 -a 0 -x {1.0 2.0 1 ------- null}
h -t 0.300008 -s 1 -d 3 -p tcp -e 1040 -c 0 -i 4 -a 0 -x {1.0 2.0 -1 ------- null}
+ -t 0.300008 -s 1 -d 3 -p tcp -e 1040 -c 0 -i 5 -a 0 -x {1.0 2.0 2 ------- null}
d -t 0.300012 -s 0 -d 3 -p tcp -e 1040 -c 0 -i 4 -a 0 -x {1.0 2.0 1 ------- null}
+ -t 0.300424 -s 0 -d 3 -p tcp -e 1040 -c 1 -i 6 -a 1 -x {0.0 2.1 1 ------- null}
- -t 0.300424 -s 0 -d 3 -p tcp -e 1040 -c 1 -i 6 -a 1 -x {0.0 2.1 1 ------- null}
h -t 0.300424 -s 0 -d 3 -p tcp -e 1040 -c 1 -i 6 -a 1 -x {0.0 2.1 -1 ------- null}
+ -t 0.300424 -s 0 -d 3 -p tcp -e 1040 -c 1 -i 7 -a 1 -x {0.0 2.1 2 ------- null}
d -t 0.300428 -s 1 -d 3 -p tcp -e 1040 -c 1 -i 6 -a 1 -x {0.0 2.1 1 ------- null}
- -t 0.304424 -s 1 -d 3 -p tcp -e 1040 -c 0 -i 5 -a 0 -x {1.0 2.0 2 ------- null}
h -t 0.304424 -s 1 -d 3 -p tcp -e 1040 -c 0 -i 5 -a 0 -x {1.0 2.0 -1 ------- null}
d -t 0.304428 -s 0 -d 3 -p tcp -e 1040 -c 0 -i 5 -a 0 -x {1.0 2.0 2 ------- null}
- -t 0.30484 -s 0 -d 3 -p tcp -e 1040 -c 1 -i 7 -a 1 -x {0.0 2.1 2 ------- null}
h -t 0.30484 -s 0 -d 3 -p tcp -e 1040 -c 1 -i 7 -a 1 -x {0.0 2.1 -1 ------- null}
d -t 0.304844 -s 1 -d 3 -p tcp -e 1040 -c 1 -i 7 -a 1 -x {0.0 2.1 2 ------- null}
r -t 0.340012 -s 3 -d 2 -p tcp -e 1040 -c 0 -i 4 -a 0 -x {1.0 2.0 1 ------- null}
h -t 0.340012 -s 2 -d 3 -p ack -e 40 -c 0 -i 8 -a 0 -x {2.0 1.0 1 ------- null}
r -t 0.340428 -s 3 -d 2 -p tcp -e 1040 -c 1 -i 6 -a 1 -x {0.0 2.1 1 ------- null}
h -t 0.340428 -s 2 -d 3 -p ack -e 40 -c 1 -i 9 -a 1 -x {2.1 0.0 1 ------- null}
r -t 0.344428 -s 3 -d 2 -p tcp -e 1040 -c 0 -i 5 -a 0 -x {1.0 2.0 2 ------- null}
h -t 0.344428 -s 2 -d 3 -p ack -e 40 -c 0 -i 10 -a 0 -x {2.0 1.0 2 ------- null}
r -t 0.344844 -s 3 -d 2 -p tcp -e 1040 -c 1 -i 7 -a 1 -x {0.0 2.1 2 ------- null}
h -t 0.344844 -s 2 -d 3 -p ack -e 40 -c 1 -i 11 -a 1 -x {2.1 0.0 2 ------- null}
+ -t 0.380012 -s 2 -d 3 -p ack -e 40 -c 0 -i 8 -a 0 -x {2.0 1.0 1 ------- null}
- -t 0.380012 -s 2 -d 3 -p ack -e 40 -c 0 -i 8 -a 0 -x {2.0 1.0 1 ------- null}
h -t 0.380012 -s 2 -d 3 -p ack -e 40 -c 0 -i 8 -a 0 -x {2.0 1.0 -1 ------- null}
d -t 0.380016 -s 0 -d 3 -p ack -e 40 -c 0 -i 8 -a 0 -x {2.0 1.0 1 ------- null}
+ -t 0.380428 -s 2 -d 3 -p ack -e 40 -c 1 -i 9 -a 1 -x {2.1 0.0 1 ------- null}
- -t 0.380428 -s 2 -d 3 -p ack -e 40 -c 1 -i 9 -a 1 -x {2.1 0.0 1 ------- null}
h -t 0.380428 -s 2 -d 3 -p ack -e 40 -c 1 -i 9 -a 1 -x {2.1 0.0 -1 ------- null}
d -t 0.380432 -s 1 -d 3 -p ack -e 40 -c 1 -i 9 -a 1 -x {2.1 0.0 1 ------- null}
+ -t 0.384428 -s 2 -d 3 -p ack -e 40 -c 0 -i 10 -a 0 -x {2.0 1.0 2 ------- null}
- -t 0.384428 -s 2 -d 3 -p ack -e 40 -c 0 -i 10 -a 0 -x {2.0 1.0 2 ------- null}
h -t 0.384428 -s 2 -d 3 -p ack -e 40 -c 0 -i 10 -a 0 -x {2.0 1.0 -1 ------- null}
d -t 0.384432 -s 0 -d 3 -p ack -e 40 -c 0 -i 10 -a 0 -x {2.0 1.0 2 ------- null}
+ -t 0.384844 -s 2 -d 3 -p ack -e 40 -c 1 -i 11 -a 1 -x {2.1 0.0 2 ------- null}
- -t 0.384844 -s 2 -d 3 -p ack -e 40 -c 1 -i 11 -a 1 -x {2.1 0.0 2 ------- null}
h -t 0.384844 -s 2 -d 3 -p ack -e 40 -c 1 -i 11 -a 1 -x {2.1 0.0 -1 ------- null}
d -t 0.384848 -s 1 -d 3 -p ack -e 40 -c 1 -i 11 -a 1 -x {2.1 0.0 2 ------- null}
r -t 0.420016 -s 3 -d 1 -p ack -e 40 -c 0 -i 8 -a 0 -x {2.0 1.0 1 ------- null}
h -t 0.420016 -s 1 -d 3 -p tcp -e 1040 -c 0 -i 12 -a 0 -x {1.0 2.0 3 ------- null}
h -t 0.420016 -s 1 -d 3 -p tcp -e 1040 -c 0 -i 13 -a 0 -x {1.0 2.0 4 ------- null}
r -t 0.420432 -s 3 -d 0 -p ack -e 40 -c 1 -i 9 -a 1 -x {2.1 0.0 1 ------- null}
h -t 0.420432 -s 0 -d 3 -p tcp -e 1040 -c 1 -i 14 -a 1 -x {0.0 2.1 3 ------- null}
h -t 0.420432 -s 0 -d 3 -p tcp -e 1040 -c 1 -i 15 -a 1 -x {0.0 2.1 4 ------- null}
r -t 0.424432 -s 3 -d 1 -p ack -e 40 -c 0 -i 10 -a 0 -x {2.0 1.0 2 ------- null}
h -t 0.424432 -s 1 -d 3 -p tcp -e 1040 -c 0 -i 16 -a 0 -x {1.0 2.0 5 ------- null}
h -t 0.424432 -s 1 -d 3 -p tcp -e 1040 -c 0 -i 17 -a 0 -x {1.0 2.0 6 ------- null}
r -t 0.424848 -s 3 -d 0 -p ack -e 40 -c 1 -i 11 -a 1 -x {2.1 0.0 2 ------- null}
h -t 0.424848 -s 0 -d 3 -p tcp -e 1040 -c 1 -i 18 -a 1 -x {0.0 2.1 5 ------- null}
h -t 0.424848 -s 0 -d 3 -p tcp -e 1040 -c 1 -i 19 -a 1 -x {0.0 2.1 6 ------- null}
+ -t 0.460016 -s 1 -d 3 -p tcp -e 1040 -c 0 -i 12 -a 0 -x {1.0 2.0 3 ------- null}
- -t 0.460016 -s 1 -d 3 -p tcp -e 1040 -c 0 -i 12 -a 0 -x {1.0 2.0 3 ------- null}
h -t 0.460016 -s 1 -d 3 -p tcp -e 1040 -c 0 -i 12 -a 0 -x {1.0 2.0 -1 ------- null}
+ -t 0.460016 -s 1 -d 3 -p tcp -e 1040 -c 0 -i 13 -a 0 -x {1.0 2.0 4 ------- null}
d -t 0.46002 -s 0 -d 3 -p tcp -e 1040 -c 0 -i 12 -a 0 -x {1.0 2.0 3 ------- null}
+ -t 0.460432 -s 0 -d 3 -p tcp -e 1040 -c 1 -i 14 -a 1 -x {0.0 2.1 3 ------- null}
- -t 0.460432 -s 0 -d 3 -p tcp -e 1040 -c 1 -i 14 -a 1 -x {0.0 2.1 3 ------- null}
h -t 0.460432 -s 0 -d 3 -p tcp -e 1040 -c 1 -i 14 -a 1 -x {0.0 2.1 -1 ------- null}
+ -t 0.460432 -s 0 -d 3 -p tcp -e 1040 -c 1 -i 15 -a 1 -x {0.0 2.1 4 ------- null}
d -t 0.460436 -s 1 -d 3 -p tcp -e 1040 -c 1 -i 14 -a 1 -x {0.0 2.1 3 ------- null}
+ -t 0.464432 -s 1 -d 3 -p tcp -e 1040 -c 0 -i 16 -a 0 -x {1.0 2.0 5 ------- null}
+ -t 0.464432 -s 1 -d 3 -p tcp -e 1040 -c 0 -i 17 -a 0 -x {1.0 2.0 6 ------- null}
- -t 0.464432 -s 1 -d 3 -p tcp -e 1040 -c 0 -i 13 -a 0 -x {1.0 2.0 4 ------- null}
h -t 0.464432 -s 1 -d 3 -p tcp -e 1040 -c 0 -i 13 -a 0 -x {1.0 2.0 -1 ------- null}
d -t 0.464436 -s 0 -d 3 -p tcp -e 1040 -c 0 -i 13 -a 0 -x {1.0 2.0 4 ------- null}
+ -t 0.464848 -s 0 -d 3 -p tcp -e 1040 -c 1 -i 18 -a 1 -x {0.0 2.1 5 ------- null}
+ -t 0.464848 -s 0 -d 3 -p tcp -e 1040 -c 1 -i 19 -a 1 -x {0.0 2.1 6 ------- null}
- -t 0.464848 -s 0 -d 3 -p tcp -e 1040 -c 1 -i 15 -a 1 -x {0.0 2.1 4 ------- null}
h -t 0.464848 -s 0 -d 3 -p tcp -e 1040 -c 1 -i 15 -a 1 -x {0.0 2.1 -1 ------- null}
d -t 0.464852 -s 1 -d 3 -p tcp -e 1040 -c 1 -i 15 -a 1 -x {0.0 2.1 4 ------- null}
- -t 0.468848 -s 1 -d 3 -p tcp -e 1040 -c 0 -i 16 -a 0 -x {1.0 2.0 5 ------- null}
h -t 0.468848 -s 1 -d 3 -p tcp -e 1040 -c 0 -i 16 -a 0 -x {1.0 2.0 -1 ------- null}
d -t 0.468852 -s 0 -d 3 -p tcp -e 1040 -c 0 -i 16 -a 0 -x {1.0 2.0 5 ------- null}
- -t 0.469264 -s 0 -d 3 -p tcp -e 1040 -c 1 -i 18 -a 1 -x {0.0 2.1 5 ------- null}
h -t 0.469264 -s 0 -d 3 -p tcp -e 1040 -c 1 -i 18 -a 1 -x {0.0 2.1 -1 ------- null}
d -t 0.469268 -s 1 -d 3 -p tcp -e 1040 -c 1 -i 18 -a 1 -x {0.0 2.1 5 ------- null}
- -t 0.473264 -s 1 -d 3 -p tcp -e 1040 -c 0 -i 17 -a 0 -x {1.0 2.0 6 ------- null}
h -t 0.473264 -s 1 -d 3 -p tcp -e 1040 -c 0 -i 17 -a 0 -x {1.0 2.0 -1 ------- null}
d -t 0.473268 -s 0 -d 3 -p tcp -e 1040 -c 0 -i 17 -a 0 -x {1.0 2.0 6 ------- null}
- -t 0.47368 -s 0 -d 3 -p tcp -e 1040 -c 1 -i 19 -a 1 -x {0.0 2.1 6 ------- null}
h -t 0.47368 -s 0 -d 3 -p tcp -e 1040 -c 1 -i 19 -a 1 -x {0.0 2.1 -1 ------- null}
d -t 0.473684 -s 1 -d 3 -p tcp -e 1040 -c 1 -i 19 -a 1 -x {0.0 2.1 6 ------- null}
r -t 0.50002 -s 3 -d 2 -p tcp -e 1040 -c 0 -i 12 -a 0 -x {1.0 2.0 3 ------- null}
h -t 0.50002 -s 2 -d 3 -p ack -e 40 -c 0 -i 20 -a 0 -x {2.0 1.0 3 ------- null}
r -t 0.500436 -s 3 -d 2 -p tcp -e 1040 -c 1 -i 14 -a 1 -x {0.0 2.1 3 ------- null}
h -t 0.500436 -s 2 -d 3 -p ack -e 40 -c 1 -i 21 -a 1 -x {2.1 0.0 3 ------- null}
r -t 0.504436 -s 3 -d 2 -p tcp -e 1040 -c 0 -i 13 -a 0 -x {1.0 2.0 4 ------- null}
h -t 0.504436 -s 2 -d 3 -p ack -e 40 -c 0 -i 22 -a 0 -x {2.0 1.0 4 ------- null}
r -t 0.504852 -s 3 -d 2 -p tcp -e 1040 -c 1 -i 15 -a 1 -x {0.0 2.1 4 ------- null}
h -t 0.504852 -s 2 -d 3 -p ack -e 40 -c 1 -i 23 -a 1 -x {2.1 0.0 4 ------- null}
r -t 0.508852 -s 3 -d 2 -p tcp -e 1040 -c 0 -i 16 -a 0 -x {1.0 2.0 5 ------- null}
h -t 0.508852 -s 2 -d 3 -p ack -e 40 -c 0 -i 24 -a 0 -x {2.0 1.0 5 ------- null}
r -t 0.509268 -s 3 -d 2 -p tcp -e 1040 -c 1 -i 18 -a 1 -x {0.0 2.1 5 ------- null}
h -t 0.509268 -s 2 -d 3 -p ack -e 40 -c 1 -i 25 -a 1 -x {2.1 0.0 5 ------- null}
r -t 0.513268 -s 3 -d 2 -p tcp -e 1040 -c 0 -i 17 -a 0 -x {1.0 2.0 6 ------- null}
h -t 0.513268 -s 2 -d 3 -p ack -e 40 -c 0 -i 26 -a 0 -x {2.0 1.0 6 ------- null}
r -t 0.513684 -s 3 -d 2 -p tcp -e 1040 -c 1 -i 19 -a 1 -x {0.0 2.1 6 ------- null}
h -t 0.513684 -s 2 -d 3 -p ack -e 40 -c 1 -i 27 -a 1 -x {2.1 0.0 6 ------- null}
+ -t 0.54002 -s 2 -d 3 -p ack -e 40 -c 0 -i 20 -a 0 -x {2.0 1.0 3 ------- null}
- -t 0.54002 -s 2 -d 3 -p ack -e 40 -c 0 -i 20 -a 0 -x {2.0 1.0 3 ------- null}
h -t 0.54002 -s 2 -d 3 -p ack -e 40 -c 0 -i 20 -a 0 -x {2.0 1.0 -1 ------- null}
d -t 0.540024 -s 0 -d 3 -p ack -e 40 -c 0 -i 20 -a 0 -x {2.0 1.0 3 ------- null}
+ -t 0.540436 -s 2 -d 3 -p ack -e 40 -c 1 -i 21 -a 1 -x {2.1 0.0 3 ------- null}
- -t 0.540436 -s 2 -d 3 -p ack -e 40 -c 1 -i 21 -a 1 -x {2.1 0.0 3 ------- null}
h -t 0.540436 -s 2 -d 3 -p ack -e 40 -c 1 -i 21 -a 1 -x {2.1 0.0 -1 ------- null}
d -t 0.54044 -s 1 -d 3 -p ack -e 40 -c 1 -i 21 -a 1 -x {2.1 0.0 3 ------- null}
+ -t 0.544436 -s 2 -d 3 -p ack -e 40 -c 0 -i 22 -a 0 -x {2.0 1.0 4 ------- null}
- -t 0.544436 -s 2 -d 3 -p ack -e 40 -c 0 -i 22 -a 0 -x {2.0 1.0 4 ------- null}
h -t 0.544436 -s 2 -d 3 -p ack -e 40 -c 0 -i 22 -a 0 -x {2.0 1.0 -1 ------- null}
d -t 0.54444 -s 0 -d 3 -p ack -e 40 -c 0 -i 22 -a 0 -x {2.0 1.0 4 ------- null}
+ -t 0.544852 -s 2 -d 3 -p ack -e 40 -c 1 -i 23 -a 1 -x {2.1 0.0 4 ------- null}
- -t 0.544852 -s 2 -d 3 -p ack -e 40 -c 1 -i 23 -a 1 -x {2.1 0.0 4 ------- null}
h -t 0.544852 -s 2 -d 3 -p ack -e 40 -c 1 -i 23 -a 1 -x {2.1 0.0 -1 ------- null}
d -t 0.544856 -s 1 -d 3 -p ack -e 40 -c 1 -i 23 -a 1 -x {2.1 0.0 4 ------- null}
+ -t 0.548852 -s 2 -d 3 -p ack -e 40 -c 0 -i 24 -a 0 -x {2.0 1.0 5 ------- null}
- -t 0.548852 -s 2 -d 3 -p ack -e 40 -c 0 -i 24 -a 0 -x {2.0 1.0 5 ------- null}
h -t 0.548852 -s 2 -d 3 -p ack -e 40 -c 0 -i 24 -a 0 -x {2.0 1.0 -1 ------- null}
d -t 0.548856 -s 0 -d 3 -p ack -e 40 -c 0 -i 24 -a 0 -x {2.0 1.0 5 ------- null}
+ -t 0.549268 -s 2 -d 3 -p ack -e 40 -c 1 -i 25 -a 1 -x {2.1 0.0 5 ------- null}
- -t 0.549268 -s 2 -d 3 -p ack -e 40 -c 1 -i 25 -a 1 -x {2.1 0.0 5 ------- null}
h -t 0.549268 -s 2 -d 3 -p ack -e 40 -c 1 -i 25 -a 1 -x {2.1 0.0 -1 ------- null}
d -t 0.549272 -s 1 -d 3 -p ack -e 40 -c 1 -i 25 -a 1 -x {2.1 0.0 5 ------- null}
+ -t 0.553268 -s 2 -d 3 -p ack -e 40 -c 0 -i 26 -a 0 -x {2.0 1.0 6 ------- null}
- -t 0.553268 -s 2 -d 3 -p ack -e 40 -c 0 -i 26 -a 0 -x {2.0 1.0 6 ------- null}
h -t 0.553268 -s 2 -d 3 -p ack -e 40 -c 0 -i 26 -a 0 -x {2.0 1.0 -1 ------- null}
d -t 0.553272 -s 0 -d 3 -p ack -e 40 -c 0 -i 26 -a 0 -x {2.0 1.0 6 ------- null}
+ -t 0.553684 -s 2 -d 3 -p ack -e 40 -c 1 -i 27 -a 1 -x {2.1 0.0 6 ------- null}
- -t 0.553684 -s 2 -d 3 -p ack -e 40 -c 1 -i 27 -a 1 -x {2.1 0.0 6 ------- null}
h -t 0.553684 -s 2 -d 3 -p ack -e 40 -c 1 -i 27 -a 1 -x {2.1 0.0 -1 ------- null}
d -t 0.553688 -s 1 -d 3 -p ack -e 40 -c 1 -i 27 -a 1 -x {2.1 0.0 6 ------- null}
r -t 0.580024 -s 3 -d 1 -p ack -e 40 -c 0 -i 20 -a 0 -x {2.0 1.0 3 ------- null}
h -t 0.580024 -s 1 -d 3 -p tcp -e 1040 -c 0 -i 28 -a 0 -x {1.0 2.0 7 ------- null}
h -t 0.580024 -s 1 -d 3 -p tcp -e 1040 -c 0 -i 29 -a 0 -x {1.0 2.0 8 ------- null}
r -t 0.58044 -s 3 -d 0 -p ack -e 40 -c 1 -i 21 -a 1 -x {2.1 0.0 3 ------- null}
h -t 0.58044 -s 0 -d 3 -p tcp -e 1040 -c 1 -i 30 -a 1 -x {0.0 2.1 7 ------- null}
h -t 0.58044 -s 0 -d 3 -p tcp -e 1040 -c 1 -i 31 -a 1 -x {0.0 2.1 8 ------- null}
r -t 0.58444 -s 3 -d 1 -p ack -e 40 -c 0 -i 22 -a 0 -x {2.0 1.0 4 ------- null}
h -t 0.58444 -s 1 -d 3 -p tcp -e 1040 -c 0 -i 32 -a 0 -x {1.0 2.0 9 ------- null}
h -t 0.58444 -s 1 -d 3 -p tcp -e 1040 -c 0 -i 33 -a 0 -x {1.0 2.0 10 ------- null}
r -t 0.584856 -s 3 -d 0 -p ack -e 40 -c 1 -i 23 -a 1 -x {2.1 0.0 4 ------- null}
h -t 0.584856 -s 0 -d 3 -p tcp -e 1040 -c 1 -i 34 -a 1 -x {0.0 2.1 9 ------- null}
h -t 0.584856 -s 0 -d 3 -p tcp -e 1040 -c 1 -i 35 -a 1 -x {0.0 2.1 10 ------- null}
r -t 0.588856 -s 3 -d 1 -p ack -e 40 -c 0 -i 24 -a 0 -x {2.0 1.0 5 ------- null}
h -t 0.588856 -s 1 -d 3 -p tcp -e 1040 -c 0 -i 36 -a 0 -x {1.0 2.0 11 ------- null}
h -t 0.588856 -s 1 -d 3 -p tcp -e 1040 -c 0 -i 37 -a 0 -x {1.0 2.0 12 ------- null}
r -t 0.589272 -s 3 -d 0 -p ack -e 40 -c 1 -i 25 -a 1 -x {2.1 0.0 5 ------- null}
h -t 0.589272 -s 0 -d 3 -p tcp -e 1040 -c 1 -i 38 -a 1 -x {0.0 2.1 11 ------- null}
h -t 0.589272 -s 0 -d 3 -p tcp -e 1040 -c 1 -i 39 -a 1 -x {0.0 2.1 12 ------- null}
r -t 0.593272 -s 3 -d 1 -p ack -e 40 -c 0 -i 26 -a 0 -x {2.0 1.0 6 ------- null}
h -t 0.593272 -s 1 -d 3 -p tcp -e 1040 -c 0 -i 40 -a 0 -x {1.0 2.0 13 ------- null}
h -t 0.593272 -s 1 -d 3 -p tcp -e 1040 -c 0 -i 41 -a 0 -x {1.0 2.0 14 ------- null}
r -t 0.593688 -s 3 -d 0 -p ack -e 40 -c 1 -i 27 -a 1 -x {2.1 0.0 6 ------- null}
h -t 0.593688 -s 0 -d 3 -p tcp -e 1040 -c 1 -i 42 -a 1 -x {0.0 2.1 13 ------- null}
h -t 0.593688 -s 0 -d 3 -p tcp -e 1040 -c 1 -i 43 -a 1 -x {0.0 2.1 14 ------- null}
+ -t 0.620024 -s 1 -d 3 -p tcp -e 1040 -c 0 -i 28 -a 0 -x {1.0 2.0 7 ------- null}
- -t 0.620024 -s 1 -d 3 -p tcp -e 1040 -c 0 -i 28 -a 0 -x {1.0 2.0 7 ------- null}
h -t 0.620024 -s 1 -d 3 -p tcp -e 1040 -c 0 -i 28 -a 0 -x {1.0 2.0 -1 ------- null}
+ -t 0.620024 -s 1 -d 3 -p tcp -e 1040 -c 0 -i 29 -a 0 -x {1.0 2.0 8 ------- null}
d -t 0.620028 -s 0 -d 3 -p tcp -e 1040 -c 0 -i 28 -a 0 -x {1.0 2.0 7 ------- null}
+ -t 0.62044 -s 0 -d 3 -p tcp -e 1040 -c 1 -i 30 -a 1 -x {0.0 2.1 7 ------- null}
- -t 0.62044 -s 0 -d 3 -p tcp -e 1040 -c 1 -i 30 -a 1 -x {0.0 2.1 7 ------- null}
h -t 0.62044 -s 0 -d 3 -p tcp -e 1040 -c 1 -i 30 -a 1 -x {0.0 2.1 -1 ------- null}
+ -t 0.62044 -s 0 -d 3 -p tcp -e 1040 -c 1 -i 31 -a 1 -x {0.0 2.1 8 ------- null}
d -t 0.620444 -s 1 -d 3 -p tcp -e 1040 -c 1 -i 30 -a 1 -x {0.0 2.1 7 ------- null}
+ -t 0.62444 -s 1 -d 3 -p tcp -e 1040 -c 0 -i 32 -a 0 -x {1.0 2.0 9 ------- null}
+ -t 0.62444 -s 1 -d 3 -p tcp -e 1040 -c 0 -i 33 -a 0 -x {1.0 2.0 10 ------- null}
- -t 0.62444 -s 1 -d 3 -p tcp -e 1040 -c 0 -i 29 -a 0 -x {1.0 2.0 8 ------- null}
h -t 0.62444 -s 1 -d 3 -p tcp -e 1040 -c 0 -i 29 -a 0 -x {1.0 2.0 -1 ------- null}
d -t 0.624444 -s 0 -d 3 -p tcp -e 1040 -c 0 -i 29 -a 0 -x {1.0 2.0 8 ------- null}
+ -t 0.624856 -s 0 -d 3 -p tcp -e 1040 -c 1 -i 34 -a 1 -x {0.0 2.1 9 ------- null}
+ -t 0.624856 -s 0 -d 3 -p tcp -e 1040 -c 1 -i 35 -a 1 -x {0.0 2.1 10 ------- null}
- -t 0.624856 -s 0 -d 3 -p tcp -e 1040 -c 1 -i 31 -a 1 -x {0.0 2.1 8 ------- null}
h -t 0.624856 -s 0 -d 3 -p tcp -e 1040 -c 1 -i 31 -a 1 -x {0.0 2.1 -1 ------- null}
d -t 0.62486 -s 1 -d 3 -p tcp -e 1040 -c 1 -i 31 -a 1 -x {0.0 2.1 8 ------- null}
+ -t 0.628856 -s 1 -d 3 -p tcp -e 1040 -c 0 -i 36 -a 0 -x {1.0 2.0 11 ------- null}
+ -t 0.628856 -s 1 -d 3 -p tcp -e 1040 -c 0 -i 37 -a 0 -x {1.0 2.0 12 ------- null}
- -t 0.628856 -s 1 -d 3 -p tcp -e 1040 -c 0 -i 32 -a 0 -x {1.0 2.0 9 ------- null}
h -t 0.628856 -s 1 -d 3 -p tcp -e 1040 -c 0 -i 32 -a 0 -x {1.0 2.0 -1 ------- null}
d -t 0.62886 -s 0 -d 3 -p tcp -e 1040 -c 0 -i 32 -a 0 -x {1.0 2.0 9 ------- null}
+ -t 0.629272 -s 0 -d 3 -p tcp -e 1040 -c 1 -i 38 -a 1 -x {0.0 2.1 11 ------- null}
+ -t 0.629272 -s 0 -d 3 -p tcp -e 1040 -c 1 -i 39 -a 1 -x {0.0 2.1 12 ------- null}
- -t 0.629272 -s 0 -d 3 -p tcp -e 1040 -c 1 -i 34 -a 1 -x {0.0 2.1 9 ------- null}
h -t 0.629272 -s 0 -d 3 -p tcp -e 1040 -c 1 -i 34 -a 1 -x {0.0 2.1 -1 ------- null}
d -t 0.629276 -s 1 -d 3 -p tcp -e 1040 -c 1 -i 34 -a 1 -x {0.0 2.1 9 ------- null}
+ -t 0.633272 -s 1 -d 3 -p tcp -e 1040 -c 0 -i 40 -a 0 -x {1.0 2.0 13 ------- null}
+ -t 0.633272 -s 1 -d 3 -p tcp -e 1040 -c 0 -i 41 -a 0 -x {1.0 2.0 14 ------- null}
- -t 0.633272 -s 1 -d 3 -p tcp -e 1040 -c 0 -i 33 -a 0 -x {1.0 2.0 10 ------- null}
h -t 0.633272 -s 1 -d 3 -p tcp -e 1040 -c 0 -i 33 -a 0 -x {1.0 2.0 -1 ------- null}
d -t 0.633276 -s 0 -d 3 -p tcp -e 1040 -c 0 -i 33 -a 0 -x {1.0 2.0 10 ------- null}
+ -t 0.633688 -s 0 -d 3 -p tcp -e 1040 -c 1 -i 42 -a 1 -x {0.0 2.1 13 ------- null}
+ -t 0.633688 -s 0 -d 3 -p tcp -e 1040 -c 1 -i 43 -a 1 -x {0.0 2.1 14 ------- null}
- -t 0.633688 -s 0 -d 3 -p tcp -e 1040 -c 1 -i 35 -a 1 -x {0.0 2.1 10 ------- null}
h -t 0.633688 -s 0 -d 3 -p tcp -e 1040 -c 1 -i 35 -a 1 -x {0.0 2.1 -1 ------- null}
d -t 0.633692 -s 1 -d 3 -p tcp -e 1040 -c 1 -i 35 -a 1 -x {0.0 2.1 10 ------- null}
- -t 0.637688 -s 1 -d 3 -p tcp -e 1040 -c 0 -i 36 -a 0 -x {1.0 2.0 11 ------- null}
h -t 0.637688 -s 1 -d 3 -p tcp -e 1040 -c 0 -i 36 -a 0 -x {1.0 2.0 -1 ------- null}
d -t 0.637692 -s 0 -d 3 -p tcp -e 1040 -c 0 -i 36 -a 0 -x {1.0 2.0 11 ------- null}
- -t 0.638104 -s 0 -d 3 -p tcp -e 1040 -c 1 -i 38 -a 1 -x {0.0 2.1 11 ------- null}
h -t 0.638104 -s 0 -d 3 -p tcp -e 1040 -c 1 -i 38 -a 1 -x {0.0 2.1 -1 ------- null}
d -t 0.638108 -s 1 -d 3 -p tcp -e 1040 -c 1 -i 38 -a 1 -x {0.0 2.1 11 ------- null}
- -t 0.642104 -s 1 -d 3 -p tcp -e 1040 -c 0 -i 37 -a 0 -x {1.0 2.0 12 ------- null}
h -t 0.642104 -s 1 -d 3 -p tcp -e 1040 -c 0 -i 37 -a 0 -x {1.0 2.0 -1 ------- null}
d -t 0.642108 -s 0 -d 3 -p tcp -e 1040 -c 0 -i 37 -a 0 -x {1.0 2.0 12 ------- null}
- -t 0.64252 -s 0 -d 3 -p tcp -e 1040 -c 1 -i 39 -a 1 -x {0.0 2.1 12 ------- null}
h -t 0.64252 -s 0 -d 3 -p tcp -e 1040 -c 1 -i 39 -a 1 -x {0.0 2.1 -1 ------- null}
d -t 0.642524 -s 1 -d 3 -p tcp -e 1040 -c 1 -i 39 -a 1 -x {0.0 2.1 12 ------- null}
- -t 0.64652 -s 1 -d 3 -p tcp -e 1040 -c 0 -i 40 -a 0 -x {1.0 2.0 13 ------- null}
h -t 0.64652 -s 1 -d 3 -p tcp -e 1040 -c 0 -i 40 -a 0 -x {1.0 2.0 -1 ------- null}
d -t 0.646524 -s 0 -d 3 -p tcp -e 1040 -c 0 -i 40 -a 0 -x {1.0 2.0 13 ------- null}
- -t 0.646936 -s 0 -d 3 -p tcp -e 1040 -c 1 -i 42 -a 1 -x {0.0 2.1 13 ------- null}
h -t 0.646936 -s 0 -d 3 -p tcp -e 1040 -c 1 -i 42 -a 1 -x {0.0 2.1 -1 ------- null}
d -t 0.64694 -s 1 -d 3 -p tcp -e 1040 -c 1 -i 42 -a 1 -x {0.0 2.1 13 ------- null}
- -t 0.650936 -s 1 -d 3 -p tcp -e 1040 -c 0 -i 41 -a 0 -x {1.0 2.0 14 ------- null}
h -t 0.650936 -s 1 -d 3 -p tcp -e 1040 -c 0 -i 41 -a 0 -x {1.0 2.0 -1 ------- null}
d -t 0.65094 -s 0 -d 3 -p tcp -e 1040 -c 0 -i 41 -a 0 -x {1.0 2.0 14 ------- null}
- -t 0.651352 -s 0 -d 3 -p tcp -e 1040 -c 1 -i 43 -a 1 -x {0.0 2.1 14 ------- null}
h -t 0.651352 -s 0 -d 3 -p tcp -e 1040 -c 1 -i 43 -a 1 -x {0.0 2.1 -1 ------- null}
d -t 0.651356 -s 1 -d 3 -p tcp -e 1040 -c 1 -i 43 -a 1 -x {0.0 2.1 14 ------- null}
r -t 0.660028 -s 3 -d 2 -p tcp -e 1040 -c 0 -i 28 -a 0 -x {1.0 2.0 7 ------- null}
h -t 0.660028 -s 2 -d 3 -p ack -e 40 -c 0 -i 44 -a 0 -x {2.0 1.0 7 ------- null}
r -t 0.660444 -s 3 -d 2 -p tcp -e 1040 -c 1 -i 30 -a 1 -x {0.0 2.1 7 ------- null}
h -t 0.660444 -s 2 -d 3 -p ack -e 40 -c 1 -i 45 -a 1 -x {2.1 0.0 7 ------- null}
r -t 0.664444 -s 3 -d 2 -p tcp -e 1040 -c 0 -i 29 -a 0 -x {1.0 2.0 8 ------- null}
h -t 0.664444 -s 2 -d 3 -p ack -e 40 -c 0 -i 46 -a 0 -x {2.0 1.0 8 ------- null}
r -t 0.66486 -s 3 -d 2 -p tcp -e 1040 -c 1 -i 31 -a 1 -x {0.0 2.1 8 ------- null}
h -t 0.66486 -s 2 -d 3 -p ack -e 40 -c 1 -i 47 -a 1 -x {2.1 0.0 8 ------- null}
r -t 0.66886 -s 3 -d 2 -p tcp -e 1040 -c 0 -i 32 -a 0 -x {1.0 2.0 9 ------- null}
h -t 0.66886 -s 2 -d 3 -p ack -e 40 -c 0 -i 48 -a 0 -x {2.0 1.0 9 ------- null}
r -t 0.669276 -s 3 -d 2 -p tcp -e 1040 -c 1 -i 34 -a 1 -x {0.0 2.1 9 ------- null}
h -t 0.669276 -s 2 -d 3 -p ack -e 40 -c 1 -i 49 -a 1 -x {2.1 0.0 9 ------- null}
r -t 0.673276 -s 3 -d 2 -p tcp -e 1040 -c 0 -i 33 -a 0 -x {1.0 2.0 10 ------- null}
h -t 0.673276 -s 2 -d 3 -p ack -e 40 -c 0 -i 50 -a 0 -x {2.0 1.0 10 ------- null}
r -t 0.673692 -s 3 -d 2 -p tcp -e 1040 -c 1 -i 35 -a 1 -x {0.0 2.1 10 ------- null}
h -t 0.673692 -s 2 -d 3 -p ack -e 40 -c 1 -i 51 -a 1 -x {2.1 0.0 10 ------- null}
r -t 0.677692 -s 3 -d 2 -p tcp -e 1040 -c 0 -i 36 -a 0 -x {1.0 2.0 11 ------- null}
h -t 0.677692 -s 2 -d 3 -p ack -e 40 -c 0 -i 52 -a 0 -x {2.0 1.0 11 ------- null}
r -t 0.678108 -s 3 -d 2 -p tcp -e 1040 -c 1 -i 38 -a 1 -x {0.0 2.1 11 ------- null}
h -t 0.678108 -s 2 -d 3 -p ack -e 40 -c 1 -i 53 -a 1 -x {2.1 0.0 11 ------- null}
r -t 0.682108 -s 3 -d 2 -p tcp -e 1040 -c 0 -i 37 -a 0 -x {1.0 2.0 12 ------- null}
h -t 0.682108 -s 2 -d 3 -p ack -e 40 -c 0 -i 54 -a 0 -x {2.0 1.0 12 ------- null}
r -t 0.682524 -s 3 -d 2 -p tcp -e 1040 -c 1 -i 39 -a 1 -x {0.0 2.1 12 ------- null}
h -t 0.682524 -s 2 -d 3 -p ack -e 40 -c 1 -i 55 -a 1 -x {2.1 0.0 12 ------- null}
r -t 0.686524 -s 3 -d 2 -p tcp -e 1040 -c 0 -i 40 -a 0 -x {1.0 2.0 13 ------- null}
h -t 0.686524 -s 2 -d 3 -p ack -e 40 -c 0 -i 56 -a 0 -x {2.0 1.0 13 ------- null}
r -t 0.68694 -s 3 -d 2 -p tcp -e 1040 -c 1 -i 42 -a 1 -x {0.0 2.1 13 ------- null}
h -t 0.68694 -s 2 -d 3 -p ack -e 40 -c 1 -i 57 -a 1 -x {2.1 0.0 13 ------- null}
r -t 0.69094 -s 3 -d 2 -p tcp -e 1040 -c 0 -i 41 -a 0 -x {1.0 2.0 14 ------- null}
h -t 0.69094 -s 2 -d 3 -p ack -e 40 -c 0 -i 58 -a 0 -x {2.0 1.0 14 ------- null}
r -t 0.691356 -s 3 -d 2 -p tcp -e 1040 -c 1 -i 43 -a 1 -x {0.0 2.1 14 ------- null}
h -t 0.691356 -s 2 -d 3 -p ack -e 40 -c 1 -i 59 -a 1 -x {2.1 0.0 14 ------- null}
+ -t 0.700028 -s 2 -d 3 -p ack -e 40 -c 0 -i 44 -a 0 -x {2.0 1.0 7 ------- null}
- -t 0.700028 -s 2 -d 3 -p ack -e 40 -c 0 -i 44 -a 0 -x {2.0 1.0 7 ------- null}
h -t 0.700028 -s 2 -d 3 -p ack -e 40 -c 0 -i 44 -a 0 -x {2.0 1.0 -1 ------- null}
d -t 0.700032 -s 0 -d 3 -p ack -e 40 -c 0 -i 44 -a 0 -x {2.0 1.0 7 ------- null}
+ -t 0.700444 -s 2 -d 3 -p ack -e 40 -c 1 -i 45 -a 1 -x {2.1 0.0 7 ------- null}
- -t 0.700444 -s 2 -d 3 -p ack -e 40 -c 1 -i 45 -a 1 -x {2.1 0.0 7 ------- null}
h -t 0.700444 -s 2 -d 3 -p ack -e 40 -c 1 -i 45 -a 1 -x {2.1 0.0 -1 ------- null}
d -t 0.700448 -s 1 -d 3 -p ack -e 40 -c 1 -i 45 -a 1 -x {2.1 0.0 7 ------- null}
+ -t 0.704444 -s 2 -d 3 -p ack -e 40 -c 0 -i 46 -a 0 -x {2.0 1.0 8 ------- null}
- -t 0.704444 -s 2 -d 3 -p ack -e 40 -c 0 -i 46 -a 0 -x {2.0 1.0 8 ------- null}
h -t 0.704444 -s 2 -d 3 -p ack -e 40 -c 0 -i 46 -a 0 -x {2.0 1.0 -1 ------- null}
d -t 0.704448 -s 0 -d 3 -p ack -e 40 -c 0 -i 46 -a 0 -x {2.0 1.0 8 ------- null}
+ -t 0.70486 -s 2 -d 3 -p ack -e 40 -c 1 -i 47 -a 1 -x {2.1 0.0 8 ------- null}
- -t 0.70486 -s 2 -d 3 -p ack -e 40 -c 1 -i 47 -a 1 -x {2.1 0.0 8 ------- null}
h -t 0.70486 -s 2 -d 3 -p ack -e 40 -c 1 -i 47 -a 1 -x {2.1 0.0 -1 ------- null}
d -t 0.704864 -s 1 -d 3 -p ack -e 40 -c 1 -i 47 -a 1 -x {2.1 0.0 8 ------- null}
+ -t 0.70886 -s 2 -d 3 -p ack -e 40 -c 0 -i 48 -a 0 -x {2.0 1.0 9 ------- null}
- -t 0.70886 -s 2 -d 3 -p ack -e 40 -c 0 -i 48 -a 0 -x {2.0 1.0 9 ------- null}
h -t 0.70886 -s 2 -d 3 -p ack -e 40 -c 0 -i 48 -a 0 -x {2.0 1.0 -1 ------- null}
d -t 0.708864 -s 0 -d 3 -p ack -e 40 -c 0 -i 48 -a 0 -x {2.0 1.0 9 ------- null}
+ -t 0.709276 -s 2 -d 3 -p ack -e 40 -c 1 -i 49 -a 1 -x {2.1 0.0 9 ------- null}
- -t 0.709276 -s 2 -d 3 -p ack -e 40 -c 1 -i 49 -a 1 -x {2.1 0.0 9 ------- null}
h -t 0.709276 -s 2 -d 3 -p ack -e 40 -c 1 -i 49 -a 1 -x {2.1 0.0 -1 ------- null}
d -t 0.70928 -s 1 -d 3 -p ack -e 40 -c 1 -i 49 -a 1 -x {2.1 0.0 9 ------- null}
+ -t 0.713276 -s 2 -d 3 -p ack -e 40 -c 0 -i 50 -a 0 -x {2.0 1.0 10 ------- null}
- -t 0.713276 -s 2 -d 3 -p ack -e 40 -c 0 -i 50 -a 0 -x {2.0 1.0 10 ------- null}
h -t 0.713276 -s 2 -d 3 -p ack -e 40 -c 0 -i 50 -a 0 -x {2.0 1.0 -1 ------- null}
d -t 0.71328 -s 0 -d 3 -p ack -e 40 -c 0 -i 50 -a 0 -x {2.0 1.0 10 ------- null}
+ -t 0.713692 -s 2 -d 3 -p ack -e 40 -c 1 -i 51 -a 1 -x {2.1 0.0 10 ------- null}
- -t 0.713692 -s 2 -d 3 -p ack -e 40 -c 1 -i 51 -a 1 -x {2.1 0.0 10 ------- null}
h -t 0.713692 -s 2 -d 3 -p ack -e 40 -c 1 -i 51 -a 1 -x {2.1 0.0 -1 ------- null}
d -t 0.713696 -s 1 -d 3 -p ack -e 40 -c 1 -i 51 -a 1 -x {2.1 0.0 10 ------- null}
+ -t 0.717692 -s 2 -d 3 -p ack -e 40 -c 0 -i 52 -a 0 -x {2.0 1.0 11 ------- null}
- -t 0.717692 -s 2 -d 3 -p ack -e 40 -c 0 -i 52 -a 0 -x {2.0 1.0 11 ------- null}
h -t 0.717692 -s 2 -d 3 -p ack -e 40 -c 0 -i 52 -a 0 -x {2.0 1.0 -1 ------- null}
d -t 0.717696 -s 0 -d 3 -p ack -e 40 -c 0 -i 52 -a 0 -x {2.0 1.0 11 ------- null}
+ -t 0.718108 -s 2 -d 3 -p ack -e 40 -c 1 -i 53 -a 1 -x {2.1 0.0 11 ------- null}
- -t 0.718108 -s 2 -d 3 -p ack -e 40 -c 1 -i 53 -a 1 -x {2.1 0.0 11 ------- null}
h -t 0.718108 -s 2 -d 3 -p ack -e 40 -c 1 -i 53 -a 1 -x {2.1 0.0 -1 ------- null}
d -t 0.718112 -s 1 -d 3 -p ack -e 40 -c 1 -i 53 -a 1 -x {2.1 0.0 11 ------- null}
+ -t 0.722108 -s 2 -d 3 -p ack -e 40 -c 0 -i 54 -a 0 -x {2.0 1.0 12 ------- null}
- -t 0.722108 -s 2 -d 3 -p ack -e 40 -c 0 -i 54 -a 0 -x {2.0 1.0 12 ------- null}
h -t 0.722108 -s 2 -d 3 -p ack -e 40 -c 0 -i 54 -a 0 -x {2.0 1.0 -1 ------- null}
d -t 0.722112 -s 0 -d 3 -p ack -e 40 -c 0 -i 54 -a 0 -x {2.0 1.0 12 ------- null}
+ -t 0.722524 -s 2 -d 3 -p ack -e 40 -c 1 -i 55 -a 1 -x {2.1 0.0 12 ------- null}
- -t 0.722524 -s 2 -d 3 -p ack -e 40 -c 1 -i 55 -a 1 -x {2.1 0.0 12 ------- null}
h -t 0.722524 -s 2 -d 3 -p ack -e 40 -c 1 -i 55 -a 1 -x {2.1 0.0 -1 ------- null}
d -t 0.722528 -s 1 -d 3 -p ack -e 40 -c 1 -i 55 -a 1 -x {2.1 0.0 12 ------- null}
+ -t 0.726524 -s 2 -d 3 -p ack -e 40 -c 0 -i 56 -a 0 -x {2.0 1.0 13 ------- null}
- -t 0.726524 -s 2 -d 3 -p ack -e 40 -c 0 -i 56 -a 0 -x {2.0 1.0 13 ------- null}
h -t 0.726524 -s 2 -d 3 -p ack -e 40 -c 0 -i 56 -a 0 -x {2.0 1.0 -1 ------- null}
d -t 0.726528 -s 0 -d 3 -p ack -e 40 -c 0 -i 56 -a 0 -x {2.0 1.0 13 ------- null}
+ -t 0.72694 -s 2 -d 3 -p ack -e 40 -c 1 -i 57 -a 1 -x {2.1 0.0 13 ------- null}
- -t 0.72694 -s 2 -d 3 -p ack -e 40 -c 1 -i 57 -a 1 -x {2.1 0.0 13 ------- null}
h -t 0.72694 -s 2 -d 3 -p ack -e 40 -c 1 -i 57 -a 1 -x {2.1 0.0 -1 ------- null}
d -t 0.726944 -s 1 -d 3 -p ack -e 40 -c 1 -i 57 -a 1 -x {2.1 0.0 13 ------- null}
+ -t 0.73094 -s 2 -d 3 -p ack -e 40 -c 0 -i 58 -a 0 -x {2.0 1.0 14 ------- null}
- -t 0.73094 -s 2 -d 3 -p ack -e 40 -c 0 -i 58 -a 0 -x {2.0 1.0 14 ------- null}
h -t 0.73094 -s 2 -d 3 -p ack -e 40 -c 0 -i 58 -a 0 -x {2.0 1.0 -1 ------- null}
d -t 0.730944 -s 0 -d 3 -p ack -e 40 -c 0 -i 58 -a 0 -x {2.0 1.0 14 ------- null}
+ -t 0.731356 -s 2 -d 3 -p ack -e 40 -c 1 -i 59 -a 1 -x {2.1 0.0 14 ------- null}
- -t 0.731356 -s 2 -d 3 -p ack -e 40 -c 1 -i 59 -a 1 -x {2.1 0.0 14 ------- null}
h -t 0.731356 -s 2 -d 3 -p ack -e 40 -c 1 -i 59 -a 1 -x {2.1 0.0 -1 ------- null}
d -t 0.73136 -s 1 -d 3 -p ack -e 40 -c 1 -i 59 -a 1 -x {2.1 0.0 14 ------- null}
r -t 0.740032 -s 3 -d 1 -p ack -e 40 -c 0 -i 44 -a 0 -x {2.0 1.0 7 ------- null}
h -t 0.740032 -s 1 -d 3 -p tcp -e 1040 -c 0 -i 60 -a 0 -x {1.0 2.0 15 ------- null}
h -t 0.740032 -s 1 -d 3 -p tcp -e 1040 -c 0 -i 61 -a 0 -x {1.0 2.0 16 ------- null}
r -t 0.740448 -s 3 -d 0 -p ack -e 40 -c 1 -i 45 -a 1 -x {2.1 0.0 7 ------- null}
h -t 0.740448 -s 0 -d 3 -p tcp -e 1040 -c 1 -i 62 -a 1 -x {0.0 2.1 15 ------- null}
h -t 0.740448 -s 0 -d 3 -p tcp -e 1040 -c 1 -i 63 -a 1 -x {0.0 2.1 16 ------- null}
r -t 0.744448 -s 3 -d 1 -p ack -e 40 -c 0 -i 46 -a 0 -x {2.0 1.0 8 ------- null}
h -t 0.744448 -s 1 -d 3 -p tcp -e 1040 -c 0 -i 64 -a 0 -x {1.0 2.0 17 ------- null}
h -t 0.744448 -s 1 -d 3 -p tcp -e 1040 -c 0 -i 65 -a 0 -x {1.0 2.0 18 ------- null}
r -t 0.744864 -s 3 -d 0 -p ack -e 40 -c 1 -i 47 -a 1 -x {2.1 0.0 8 ------- null}
h -t 0.744864 -s 0 -d 3 -p tcp -e 1040 -c 1 -i 66 -a 1 -x {0.0 2.1 17 ------- null}
h -t 0.744864 -s 0 -d 3 -p tcp -e 1040 -c 1 -i 67 -a 1 -x {0.0 2.1 18 ------- null}
r -t 0.748864 -s 3 -d 1 -p ack -e 40 -c 0 -i 48 -a 0 -x {2.0 1.0 9 ------- null}
h -t 0.748864 -s 1 -d 3 -p tcp -e 1040 -c 0 -i 68 -a 0 -x {1.0 2.0 19 ------- null}
h -t 0.748864 -s 1 -d 3 -p tcp -e 1040 -c 0 -i 69 -a 0 -x {1.0 2.0 20 ------- null}
r -t 0.74928 -s 3 -d 0 -p ack -e 40 -c 1 -i 49 -a 1 -x {2.1 0.0 9 ------- null}