V -t * -v 1.0a5 -a 0
A -t * -n 1 -p 0 -o 0x7fffffff -c 30 -a 1
A -t * -h 1 -m 1073741823 -s 0
c -t * -i 4 -n darkviolet
c -t * -i 0 -n brown
c -t * -i 5 -n green
c -t * -i 1 -n violet
c -t * -i 2 -n Yellow
c -t * -i 3 -n brown
n -t * -a 4 -s 4 -S UP -v circle -c black -i black
n -t * -a 0 -s 0 -S UP -v circle -c black -i black
n -t * -a 5 -s 5 -S UP -v circle -c black -i black
n -t * -a 1 -s 1 -S UP -v circle -c black -i black
n -t * -a 2 -s 2 -S UP -v circle -c black -i black
n -t * -a 3 -s 3 -S UP -v circle -c black -i black
l -t * -s 0 -d 1 -S UP -r 512000 -D 0.0050000000000000001 -c black
l -t * -s 0 -d 2 -S UP -r 512000 -D 0.0050000000000000001 -c black
l -t * -s 0 -d 3 -S UP -r 512000 -D 0.0050000000000000001 -c black
l -t * -s 0 -d 4 -S UP -r 512000 -D 0.0050000000000000001 -c black
l -t * -s 0 -d 5 -S UP -r 512000 -D 0.0050000000000000001 -c black
+ -t 0.000169788487334637 -s 0 -d 1 -p rtProtoDV -e 6 -c 0 -i 0 -a 0 -x {0.1 1.2 -1 ------- null}
- -t 0.000169788487334637 -s 0 -d 1 -p rtProtoDV -e 6 -c 0 -i 0 -a 0 -x {0.1 1.2 -1 ------- null}
h -t 0.000169788487334637 -s 0 -d 1 -p rtProtoDV -e 6 -c 0 -i 0 -a 0 -x {0.1 1.2 -1 ------- null}
+ -t 0.000169788487334637 -s 0 -d 2 -p rtProtoDV -e 6 -c 0 -i 1 -a 0 -x {0.1 2.2 -1 ------- null}
- -t 0.000169788487334637 -s 0 -d 2 -p rtProtoDV -e 6 -c 0 -i 1 -a 0 -x {0.1 2.2 -1 ------- null}
h -t 0.000169788487334637 -s 0 -d 2 -p rtProtoDV -e 6 -c 0 -i 1 -a 0 -x {0.1 2.2 -1 ------- null}
+ -t 0.000169788487334637 -s 0 -d 3 -p rtProtoDV -e 6 -c 0 -i 2 -a 0 -x {0.1 3.2 -1 ------- null}
- -t 0.000169788487334637 -s 0 -d 3 -p rtProtoDV -e 6 -c 0 -i 2 -a 0 -x {0.1 3.2 -1 ------- null}
h -t 0.000169788487334637 -s 0 -d 3 -p rtProtoDV -e 6 -c 0 -i 2 -a 0 -x {0.1 3.2 -1 ------- null}
+ -t 0.000169788487334637 -s 0 -d 4 -p rtProtoDV -e 6 -c 0 -i 3 -a 0 -x {0.1 4.2 -1 ------- null}
- -t 0.000169788487334637 -s 0 -d 4 -p rtProtoDV -e 6 -c 0 -i 3 -a 0 -x {0.1 4.2 -1 ------- null}
h -t 0.000169788487334637 -s 0 -d 4 -p rtProtoDV -e 6 -c 0 -i 3 -a 0 -x {0.1 4.2 -1 ------- null}
+ -t 0.000169788487334637 -s 0 -d 5 -p rtProtoDV -e 6 -c 0 -i 4 -a 0 -x {0.1 5.5 -1 ------- null}
- -t 0.000169788487334637 -s 0 -d 5 -p rtProtoDV -e 6 -c 0 -i 4 -a 0 -x {0.1 5.5 -1 ------- null}
h -t 0.000169788487334637 -s 0 -d 5 -p rtProtoDV -e 6 -c 0 -i 4 -a 0 -x {0.1 5.5 -1 ------- null}
r -t 0.00526353848733464 -s 0 -d 1 -p rtProtoDV -e 6 -c 0 -i 0 -a 0 -x {0.1 1.2 -1 ------- null}
+ -t 0.00526353848733464 -s 1 -d 0 -p rtProtoDV -e 6 -c 0 -i 5 -a 0 -x {1.2 0.1 -1 ------- null}
- -t 0.00526353848733464 -s 1 -d 0 -p rtProtoDV -e 6 -c 0 -i 5 -a 0 -x {1.2 0.1 -1 ------- null}
h -t 0.00526353848733464 -s 1 -d 0 -p rtProtoDV -e 6 -c 0 -i 5 -a 0 -x {1.2 0.1 -1 ------- null}
r -t 0.00526353848733464 -s 0 -d 2 -p rtProtoDV -e 6 -c 0 -i 1 -a 0 -x {0.1 2.2 -1 ------- null}
+ -t 0.00526353848733464 -s 2 -d 0 -p rtProtoDV -e 6 -c 0 -i 6 -a 0 -x {2.2 0.1 -1 ------- null}
- -t 0.00526353848733464 -s 2 -d 0 -p rtProtoDV -e 6 -c 0 -i 6 -a 0 -x {2.2 0.1 -1 ------- null}
h -t 0.00526353848733464 -s 2 -d 0 -p rtProtoDV -e 6 -c 0 -i 6 -a 0 -x {2.2 0.1 -1 ------- null}
r -t 0.00526353848733464 -s 0 -d 3 -p rtProtoDV -e 6 -c 0 -i 2 -a 0 -x {0.1 3.2 -1 ------- null}
+ -t 0.00526353848733464 -s 3 -d 0 -p rtProtoDV -e 6 -c 0 -i 7 -a 0 -x {3.2 0.1 -1 ------- null}
- -t 0.00526353848733464 -s 3 -d 0 -p rtProtoDV -e 6 -c 0 -i 7 -a 0 -x {3.2 0.1 -1 ------- null}
h -t 0.00526353848733464 -s 3 -d 0 -p rtProtoDV -e 6 -c 0 -i 7 -a 0 -x {3.2 0.1 -1 ------- null}
r -t 0.00526353848733464 -s 0 -d 4 -p rtProtoDV -e 6 -c 0 -i 3 -a 0 -x {0.1 4.2 -1 ------- null}
+ -t 0.00526353848733464 -s 4 -d 0 -p rtProtoDV -e 6 -c 0 -i 8 -a 0 -x {4.2 0.1 -1 ------- null}
- -t 0.00526353848733464 -s 4 -d 0 -p rtProtoDV -e 6 -c 0 -i 8 -a 0 -x {4.2 0.1 -1 ------- null}
h -t 0.00526353848733464 -s 4 -d 0 -p rtProtoDV -e 6 -c 0 -i 8 -a 0 -x {4.2 0.1 -1 ------- null}
r -t 0.00526353848733464 -s 0 -d 5 -p rtProtoDV -e 6 -c 0 -i 4 -a 0 -x {0.1 5.5 -1 ------- null}
+ -t 0.00526353848733464 -s 5 -d 0 -p rtProtoDV -e 6 -c 0 -i 9 -a 0 -x {5.5 0.1 -1 ------- null}
- -t 0.00526353848733464 -s 5 -d 0 -p rtProtoDV -e 6 -c 0 -i 9 -a 0 -x {5.5 0.1 -1 ------- null}
h -t 0.00526353848733464 -s 5 -d 0 -p rtProtoDV -e 6 -c 0 -i 9 -a 0 -x {5.5 0.1 -1 ------- null}
+ -t 0.00710233021858257 -s 2 -d 0 -p rtProtoDV -e 6 -c 0 -i 10 -a 0 -x {2.2 0.1 -1 ------- null}
- -t 0.00710233021858257 -s 2 -d 0 -p rtProtoDV -e 6 -c 0 -i 10 -a 0 -x {2.2 0.1 -1 ------- null}
h -t 0.00710233021858257 -s 2 -d 0 -p rtProtoDV -e 6 -c 0 -i 10 -a 0 -x {2.2 0.1 -1 ------- null}
r -t 0.0103572884873346 -s 1 -d 0 -p rtProtoDV -e 6 -c 0 -i 5 -a 0 -x {1.2 0.1 -1 ------- null}
r -t 0.0103572884873346 -s 2 -d 0 -p rtProtoDV -e 6 -c 0 -i 6 -a 0 -x {2.2 0.1 -1 ------- null}
r -t 0.0103572884873346 -s 3 -d 0 -p rtProtoDV -e 6 -c 0 -i 7 -a 0 -x {3.2 0.1 -1 ------- null}
r -t 0.0103572884873346 -s 4 -d 0 -p rtProtoDV -e 6 -c 0 -i 8 -a 0 -x {4.2 0.1 -1 ------- null}
r -t 0.0103572884873346 -s 5 -d 0 -p rtProtoDV -e 6 -c 0 -i 9 -a 0 -x {5.5 0.1 -1 ------- null}
r -t 0.0121960802185826 -s 2 -d 0 -p rtProtoDV -e 6 -c 0 -i 10 -a 0 -x {2.2 0.1 -1 ------- null}
+ -t 0.04406133552271 -s 3 -d 0 -p rtProtoDV -e 6 -c 0 -i 11 -a 0 -x {3.2 0.1 -1 ------- null}
- -t 0.04406133552271 -s 3 -d 0 -p rtProtoDV -e 6 -c 0 -i 11 -a 0 -x {3.2 0.1 -1 ------- null}
h -t 0.04406133552271 -s 3 -d 0 -p rtProtoDV -e 6 -c 0 -i 11 -a 0 -x {3.2 0.1 -1 ------- null}
r -t 0.04915508552271 -s 3 -d 0 -p rtProtoDV -e 6 -c 0 -i 11 -a 0 -x {3.2 0.1 -1 ------- null}
+ -t 0.1 -s 1 -d 0 -p tcp -e 40 -c 0 -i 12 -a 0 -x {1.0 5.0 0 ------- null}
- -t 0.1 -s 1 -d 0 -p tcp -e 40 -c 0 -i 12 -a 0 -x {1.0 5.0 0 ------- null}
h -t 0.1 -s 1 -d 0 -p tcp -e 40 -c 0 -i 12 -a 0 -x {1.0 5.0 -1 ------- null}
+ -t 0.1 -s 2 -d 0 -p tcp -e 40 -c 1 -i 13 -a 1 -x {2.0 5.1 0 ------- null}
- -t 0.1 -s 2 -d 0 -p tcp -e 40 -c 1 -i 13 -a 1 -x {2.0 5.1 0 ------- null}
h -t 0.1 -s 2 -d 0 -p tcp -e 40 -c 1 -i 13 -a 1 -x {2.0 5.1 -1 ------- null}
+ -t 0.1 -s 3 -d 0 -p tcp -e 40 -c 2 -i 14 -a 2 -x {3.0 5.2 0 ------- null}
- -t 0.1 -s 3 -d 0 -p tcp -e 40 -c 2 -i 14 -a 2 -x {3.0 5.2 0 ------- null}
h -t 0.1 -s 3 -d 0 -p tcp -e 40 -c 2 -i 14 -a 2 -x {3.0 5.2 -1 ------- null}
+ -t 0.1 -s 4 -d 0 -p tcp -e 40 -c 3 -i 15 -a 3 -x {4.0 5.3 0 ------- null}
- -t 0.1 -s 4 -d 0 -p tcp -e 40 -c 3 -i 15 -a 3 -x {4.0 5.3 0 ------- null}
h -t 0.1 -s 4 -d 0 -p tcp -e 40 -c 3 -i 15 -a 3 -x {4.0 5.3 -1 ------- null}
r -t 0.105625 -s 1 -d 0 -p tcp -e 40 -c 0 -i 12 -a 0 -x {1.0 5.0 0 ------- null}
+ -t 0.105625 -s 0 -d 5 -p tcp -e 40 -c 0 -i 12 -a 0 -x {1.0 5.0 0 ------- null}
- -t 0.105625 -s 0 -d 5 -p tcp -e 40 -c 0 -i 12 -a 0 -x {1.0 5.0 0 ------- null}
h -t 0.105625 -s 0 -d 5 -p tcp -e 40 -c 0 -i 12 -a 0 -x {1.0 5.0 -1 ------- null}
r -t 0.105625 -s 2 -d 0 -p tcp -e 40 -c 1 -i 13 -a 1 -x {2.0 5.1 0 ------- null}
+ -t 0.105625 -s 0 -d 5 -p tcp -e 40 -c 1 -i 13 -a 1 -x {2.0 5.1 0 ------- null}
r -t 0.105625 -s 3 -d 0 -p tcp -e 40 -c 2 -i 14 -a 2 -x {3.0 5.2 0 ------- null}
+ -t 0.105625 -s 0 -d 5 -p tcp -e 40 -c 2 -i 14 -a 2 -x {3.0 5.2 0 ------- null}
r -t 0.105625 -s 4 -d 0 -p tcp -e 40 -c 3 -i 15 -a 3 -x {4.0 5.3 0 ------- null}
+ -t 0.105625 -s 0 -d 5 -p tcp -e 40 -c 3 -i 15 -a 3 -x {4.0 5.3 0 ------- null}
- -t 0.10625 -s 0 -d 5 -p tcp -e 40 -c 1 -i 13 -a 1 -x {2.0 5.1 0 ------- null}
h -t 0.10625 -s 0 -d 5 -p tcp -e 40 -c 1 -i 13 -a 1 -x {2.0 5.1 -1 ------- null}
- -t 0.106875 -s 0 -d 5 -p tcp -e 40 -c 2 -i 14 -a 2 -x {3.0 5.2 0 ------- null}
h -t 0.106875 -s 0 -d 5 -p tcp -e 40 -c 2 -i 14 -a 2 -x {3.0 5.2 -1 ------- null}
- -t 0.1075 -s 0 -d 5 -p tcp -e 40 -c 3 -i 15 -a 3 -x {4.0 5.3 0 ------- null}
h -t 0.1075 -s 0 -d 5 -p tcp -e 40 -c 3 -i 15 -a 3 -x {4.0 5.3 -1 ------- null}
r -t 0.11125 -s 0 -d 5 -p tcp -e 40 -c 0 -i 12 -a 0 -x {1.0 5.0 0 ------- null}
+ -t 0.11125 -s 5 -d 0 -p ack -e 40 -c 0 -i 16 -a 0 -x {5.0 1.0 0 ------- null}
- -t 0.11125 -s 5 -d 0 -p ack -e 40 -c 0 -i 16 -a 0 -x {5.0 1.0 0 ------- null}
h -t 0.11125 -s 5 -d 0 -p ack -e 40 -c 0 -i 16 -a 0 -x {5.0 1.0 -1 ------- null}
r -t 0.111875 -s 0 -d 5 -p tcp -e 40 -c 1 -i 13 -a 1 -x {2.0 5.1 0 ------- null}
+ -t 0.111875 -s 5 -d 0 -p ack -e 40 -c 1 -i 17 -a 1 -x {5.1 2.0 0 ------- null}
- -t 0.111875 -s 5 -d 0 -p ack -e 40 -c 1 -i 17 -a 1 -x {5.1 2.0 0 ------- null}
h -t 0.111875 -s 5 -d 0 -p ack -e 40 -c 1 -i 17 -a 1 -x {5.1 2.0 -1 ------- null}
r -t 0.1125 -s 0 -d 5 -p tcp -e 40 -c 2 -i 14 -a 2 -x {3.0 5.2 0 ------- null}
+ -t 0.1125 -s 5 -d 0 -p ack -e 40 -c 2 -i 18 -a 2 -x {5.2 3.0 0 ------- null}
- -t 0.1125 -s 5 -d 0 -p ack -e 40 -c 2 -i 18 -a 2 -x {5.2 3.0 0 ------- null}
h -t 0.1125 -s 5 -d 0 -p ack -e 40 -c 2 -i 18 -a 2 -x {5.2 3.0 -1 ------- null}
r -t 0.113125 -s 0 -d 5 -p tcp -e 40 -c 3 -i 15 -a 3 -x {4.0 5.3 0 ------- null}
+ -t 0.113125 -s 5 -d 0 -p ack -e 40 -c 3 -i 19 -a 3 -x {5.3 4.0 0 ------- null}
- -t 0.113125 -s 5 -d 0 -p ack -e 40 -c 3 -i 19 -a 3 -x {5.3 4.0 0 ------- null}
h -t 0.113125 -s 5 -d 0 -p ack -e 40 -c 3 -i 19 -a 3 -x {5.3 4.0 -1 ------- null}
r -t 0.116875 -s 5 -d 0 -p ack -e 40 -c 0 -i 16 -a 0 -x {5.0 1.0 0 ------- null}
+ -t 0.116875 -s 0 -d 1 -p ack -e 40 -c 0 -i 16 -a 0 -x {5.0 1.0 0 ------- null}
- -t 0.116875 -s 0 -d 1 -p ack -e 40 -c 0 -i 16 -a 0 -x {5.0 1.0 0 ------- null}
h -t 0.116875 -s 0 -d 1 -p ack -e 40 -c 0 -i 16 -a 0 -x {5.0 1.0 -1 ------- null}
r -t 0.1175 -s 5 -d 0 -p ack -e 40 -c 1 -i 17 -a 1 -x {5.1 2.0 0 ------- null}
+ -t 0.1175 -s 0 -d 2 -p ack -e 40 -c 1 -i 17 -a 1 -x {5.1 2.0 0 ------- null}
- -t 0.1175 -s 0 -d 2 -p ack -e 40 -c 1 -i 17 -a 1 -x {5.1 2.0 0 ------- null}
h -t 0.1175 -s 0 -d 2 -p ack -e 40 -c 1 -i 17 -a 1 -x {5.1 2.0 -1 ------- null}
r -t 0.118125 -s 5 -d 0 -p ack -e 40 -c 2 -i 18 -a 2 -x {5.2 3.0 0 ------- null}
+ -t 0.118125 -s 0 -d 3 -p ack -e 40 -c 2 -i 18 -a 2 -x {5.2 3.0 0 ------- null}
- -t 0.118125 -s 0 -d 3 -p ack -e 40 -c 2 -i 18 -a 2 -x {5.2 3.0 0 ------- null}
h -t 0.118125 -s 0 -d 3 -p ack -e 40 -c 2 -i 18 -a 2 -x {5.2 3.0 -1 ------- null}
r -t 0.11875 -s 5 -d 0 -p ack -e 40 -c 3 -i 19 -a 3 -x {5.3 4.0 0 ------- null}
+ -t 0.11875 -s 0 -d 4 -p ack -e 40 -c 3 -i 19 -a 3 -x {5.3 4.0 0 ------- null}
- -t 0.11875 -s 0 -d 4 -p ack -e 40 -c 3 -i 19 -a 3 -x {5.3 4.0 0 ------- null}
h -t 0.11875 -s 0 -d 4 -p ack -e 40 -c 3 -i 19 -a 3 -x {5.3 4.0 -1 ------- null}
r -t 0.1225 -s 0 -d 1 -p ack -e 40 -c 0 -i 16 -a 0 -x {5.0 1.0 0 ------- null}
+ -t 0.1225 -s 1 -d 0 -p tcp -e 1040 -c 0 -i 20 -a 0 -x {1.0 5.0 1 ------- null}
- -t 0.1225 -s 1 -d 0 -p tcp -e 1040 -c 0 -i 20 -a 0 -x {1.0 5.0 1 ------- null}
h -t 0.1225 -s 1 -d 0 -p tcp -e 1040 -c 0 -i 20 -a 0 -x {1.0 5.0 -1 ------- null}
+ -t 0.1225 -s 1 -d 0 -p tcp -e 1040 -c 0 -i 21 -a 0 -x {1.0 5.0 2 ------- null}
r -t 0.123125 -s 0 -d 2 -p ack -e 40 -c 1 -i 17 -a 1 -x {5.1 2.0 0 ------- null}
+ -t 0.123125 -s 2 -d 0 -p tcp -e 1040 -c 1 -i 22 -a 1 -x {2.0 5.1 1 ------- null}
- -t 0.123125 -s 2 -d 0 -p tcp -e 1040 -c 1 -i 22 -a 1 -x {2.0 5.1 1 ------- null}
h -t 0.123125 -s 2 -d 0 -p tcp -e 1040 -c 1 -i 22 -a 1 -x {2.0 5.1 -1 ------- null}
+ -t 0.123125 -s 2 -d 0 -p tcp -e 1040 -c 1 -i 23 -a 1 -x {2.0 5.1 2 ------- null}
r -t 0.12375 -s 0 -d 3 -p ack -e 40 -c 2 -i 18 -a 2 -x {5.2 3.0 0 ------- null}
+ -t 0.12375 -s 3 -d 0 -p tcp -e 1040 -c 2 -i 24 -a 2 -x {3.0 5.2 1 ------- null}
- -t 0.12375 -s 3 -d 0 -p tcp -e 1040 -c 2 -i 24 -a 2 -x {3.0 5.2 1 ------- null}
h -t 0.12375 -s 3 -d 0 -p tcp -e 1040 -c 2 -i 24 -a 2 -x {3.0 5.2 -1 ------- null}
+ -t 0.12375 -s 3 -d 0 -p tcp -e 1040 -c 2 -i 25 -a 2 -x {3.0 5.2 2 ------- null}
r -t 0.124375 -s 0 -d 4 -p ack -e 40 -c 3 -i 19 -a 3 -x {5.3 4.0 0 ------- null}
+ -t 0.124375 -s 4 -d 0 -p tcp -e 1040 -c 3 -i 26 -a 3 -x {4.0 5.3 1 ------- null}
- -t 0.124375 -s 4 -d 0 -p tcp -e 1040 -c 3 -i 26 -a 3 -x {4.0 5.3 1 ------- null}
h -t 0.124375 -s 4 -d 0 -p tcp -e 1040 -c 3 -i 26 -a 3 -x {4.0 5.3 -1 ------- null}
+ -t 0.124375 -s 4 -d 0 -p tcp -e 1040 -c 3 -i 27 -a 3 -x {4.0 5.3 2 ------- null}
- -t 0.13875 -s 1 -d 0 -p tcp -e 1040 -c 0 -i 21 -a 0 -x {1.0 5.0 2 ------- null}
h -t 0.13875 -s 1 -d 0 -p tcp -e 1040 -c 0 -i 21 -a 0 -x {1.0 5.0 -1 ------- null}
- -t 0.139375 -s 2 -d 0 -p tcp -e 1040 -c 1 -i 23 -a 1 -x {2.0 5.1 2 ------- null}
h -t 0.139375 -s 2 -d 0 -p tcp -e 1040 -c 1 -i 23 -a 1 -x {2.0 5.1 -1 ------- null}
- -t 0.14 -s 3 -d 0 -p tcp -e 1040 -c 2 -i 25 -a 2 -x {3.0 5.2 2 ------- null}
h -t 0.14 -s 3 -d 0 -p tcp -e 1040 -c 2 -i 25 -a 2 -x {3.0 5.2 -1 ------- null}
- -t 0.140625 -s 4 -d 0 -p tcp -e 1040 -c 3 -i 27 -a 3 -x {4.0 5.3 2 ------- null}
h -t 0.140625 -s 4 -d 0 -p tcp -e 1040 -c 3 -i 27 -a 3 -x {4.0 5.3 -1 ------- null}
r -t 0.14375 -s 1 -d 0 -p tcp -e 1040 -c 0 -i 20 -a 0 -x {1.0 5.0 1 ------- null}
+ -t 0.14375 -s 0 -d 5 -p tcp -e 1040 -c 0 -i 20 -a 0 -x {1.0 5.0 1 ------- null}
- -t 0.14375 -s 0 -d 5 -p tcp -e 1040 -c 0 -i 20 -a 0 -x {1.0 5.0 1 ------- null}
h -t 0.14375 -s 0 -d 5 -p tcp -e 1040 -c 0 -i 20 -a 0 -x {1.0 5.0 -1 ------- null}
r -t 0.144375 -s 2 -d 0 -p tcp -e 1040 -c 1 -i 22 -a 1 -x {2.0 5.1 1 ------- null}
+ -t 0.144375 -s 0 -d 5 -p tcp -e 1040 -c 1 -i 22 -a 1 -x {2.0 5.1 1 ------- null}
r -t 0.145 -s 3 -d 0 -p tcp -e 1040 -c 2 -i 24 -a 2 -x {3.0 5.2 1 ------- null}
+ -t 0.145 -s 0 -d 5 -p tcp -e 1040 -c 2 -i 24 -a 2 -x {3.0 5.2 1 ------- null}
r -t 0.145625 -s 4 -d 0 -p tcp -e 1040 -c 3 -i 26 -a 3 -x {4.0 5.3 1 ------- null}
+ -t 0.145625 -s 0 -d 5 -p tcp -e 1040 -c 3 -i 26 -a 3 -x {4.0 5.3 1 ------- null}
r -t 0.16 -s 1 -d 0 -p tcp -e 1040 -c 0 -i 21 -a 0 -x {1.0 5.0 2 ------- null}
+ -t 0.16 -s 0 -d 5 -p tcp -e 1040 -c 0 -i 21 -a 0 -x {1.0 5.0 2 ------- null}
- -t 0.16 -s 0 -d 5 -p tcp -e 1040 -c 1 -i 22 -a 1 -x {2.0 5.1 1 ------- null}
h -t 0.16 -s 0 -d 5 -p tcp -e 1040 -c 1 -i 22 -a 1 -x {2.0 5.1 -1 ------- null}
r -t 0.160625 -s 2 -d 0 -p tcp -e 1040 -c 1 -i 23 -a 1 -x {2.0 5.1 2 ------- null}
+ -t 0.160625 -s 0 -d 5 -p tcp -e 1040 -c 1 -i 23 -a 1 -x {2.0 5.1 2 ------- null}
r -t 0.16125 -s 3 -d 0 -p tcp -e 1040 -c 2 -i 25 -a 2 -x {3.0 5.2 2 ------- null}
+ -t 0.16125 -s 0 -d 5 -p tcp -e 1040 -c 2 -i 25 -a 2 -x {3.0 5.2 2 ------- null}
r -t 0.161875 -s 4 -d 0 -p tcp -e 1040 -c 3 -i 27 -a 3 -x {4.0 5.3 2 ------- null}
+ -t 0.161875 -s 0 -d 5 -p tcp -e 1040 -c 3 -i 27 -a 3 -x {4.0 5.3 2 ------- null}
r -t 0.165 -s 0 -d 5 -p tcp -e 1040 -c 0 -i 20 -a 0 -x {1.0 5.0 1 ------- null}
+ -t 0.165 -s 5 -d 0 -p ack -e 40 -c 0 -i 28 -a 0 -x {5.0 1.0 1 ------- null}
- -t 0.165 -s 5 -d 0 -p ack -e 40 -c 0 -i 28 -a 0 -x {5.0 1.0 1 ------- null}
h -t 0.165 -s 5 -d 0 -p ack -e 40 -c 0 -i 28 -a 0 -x {5.0 1.0 -1 ------- null}
r -t 0.170625 -s 5 -d 0 -p ack -e 40 -c 0 -i 28 -a 0 -x {5.0 1.0 1 ------- null}
+ -t 0.170625 -s 0 -d 1 -p ack -e 40 -c 0 -i 28 -a 0 -x {5.0 1.0 1 ------- null}
- -t 0.170625 -s 0 -d 1 -p ack -e 40 -c 0 -i 28 -a 0 -x {5.0 1.0 1 ------- null}
h -t 0.170625 -s 0 -d 1 -p ack -e 40 -c 0 -i 28 -a 0 -x {5.0 1.0 -1 ------- null}
r -t 0.17625 -s 0 -d 1 -p ack -e 40 -c 0 -i 28 -a 0 -x {5.0 1.0 1 ------- null}
+ -t 0.17625 -s 1 -d 0 -p tcp -e 1040 -c 0 -i 29 -a 0 -x {1.0 5.0 3 ------- null}
- -t 0.17625 -s 1 -d 0 -p tcp -e 1040 -c 0 -i 29 -a 0 -x {1.0 5.0 3 ------- null}
h -t 0.17625 -s 1 -d 0 -p tcp -e 1040 -c 0 -i 29 -a 0 -x {1.0 5.0 -1 ------- null}
+ -t 0.17625 -s 1 -d 0 -p tcp -e 1040 -c 0 -i 30 -a 0 -x {1.0 5.0 4 ------- null}
- -t 0.17625 -s 0 -d 5 -p tcp -e 1040 -c 2 -i 24 -a 2 -x {3.0 5.2 1 ------- null}
h -t 0.17625 -s 0 -d 5 -p tcp -e 1040 -c 2 -i 24 -a 2 -x {3.0 5.2 -1 ------- null}
r -t 0.18125 -s 0 -d 5 -p tcp -e 1040 -c 1 -i 22 -a 1 -x {2.0 5.1 1 ------- null}
+ -t 0.18125 -s 5 -d 0 -p ack -e 40 -c 1 -i 31 -a 1 -x {5.1 2.0 1 ------- null}
- -t 0.18125 -s 5 -d 0 -p ack -e 40 -c 1 -i 31 -a 1 -x {5.1 2.0 1 ------- null}
h -t 0.18125 -s 5 -d 0 -p ack -e 40 -c 1 -i 31 -a 1 -x {5.1 2.0 -1 ------- null}
r -t 0.186875 -s 5 -d 0 -p ack -e 40 -c 1 -i 31 -a 1 -x {5.1 2.0 1 ------- null}
+ -t 0.186875 -s 0 -d 2 -p ack -e 40 -c 1 -i 31 -a 1 -x {5.1 2.0 1 ------- null}
- -t 0.186875 -s 0 -d 2 -p ack -e 40 -c 1 -i 31 -a 1 -x {5.1 2.0 1 ------- null}
h -t 0.186875 -s 0 -d 2 -p ack -e 40 -c 1 -i 31 -a 1 -x {5.1 2.0 -1 ------- null}
- -t 0.1925 -s 1 -d 0 -p tcp -e 1040 -c 0 -i 30 -a 0 -x {1.0 5.0 4 ------- null}
h -t 0.1925 -s 1 -d 0 -p tcp -e 1040 -c 0 -i 30 -a 0 -x {1.0 5.0 -1 ------- null}
- -t 0.1925 -s 0 -d 5 -p tcp -e 1040 -c 3 -i 26 -a 3 -x {4.0 5.3 1 ------- null}
h -t 0.1925 -s 0 -d 5 -p tcp -e 1040 -c 3 -i 26 -a 3 -x {4.0 5.3 -1 ------- null}
r -t 0.1925 -s 0 -d 2 -p ack -e 40 -c 1 -i 31 -a 1 -x {5.1 2.0 1 ------- null}
+ -t 0.1925 -s 2 -d 0 -p tcp -e 1040 -c 1 -i 32 -a 1 -x {2.0 5.1 3 ------- null}
- -t 0.1925 -s 2 -d 0 -p tcp -e 1040 -c 1 -i 32 -a 1 -x {2.0 5.1 3 ------- null}
h -t 0.1925 -s 2 -d 0 -p tcp -e 1040 -c 1 -i 32 -a 1 -x {2.0 5.1 -1 ------- null}
+ -t 0.1925 -s 2 -d 0 -p tcp -e 1040 -c 1 -i 33 -a 1 -x {2.0 5.1 4 ------- null}
r -t 0.1975 -s 1 -d 0 -p tcp -e 1040 -c 0 -i 29 -a 0 -x {1.0 5.0 3 ------- null}
+ -t 0.1975 -s 0 -d 5 -p tcp -e 1040 -c 0 -i 29 -a 0 -x {1.0 5.0 3 ------- null}
r -t 0.1975 -s 0 -d 5 -p tcp -e 1040 -c 2 -i 24 -a 2 -x {3.0 5.2 1 ------- null}
+ -t 0.1975 -s 5 -d 0 -p ack -e 40 -c 2 -i 34 -a 2 -x {5.2 3.0 1 ------- null}
- -t 0.1975 -s 5 -d 0 -p ack -e 40 -c 2 -i 34 -a 2 -x {5.2 3.0 1 ------- null}
h -t 0.1975 -s 5 -d 0 -p ack -e 40 -c 2 -i 34 -a 2 -x {5.2 3.0 -1 ------- null}
r -t 0.203125 -s 5 -d 0 -p ack -e 40 -c 2 -i 34 -a 2 -x {5.2 3.0 1 ------- null}
+ -t 0.203125 -s 0 -d 3 -p ack -e 40 -c 2 -i 34 -a 2 -x {5.2 3.0 1 ------- null}
- -t 0.203125 -s 0 -d 3 -p ack -e 40 -c 2 -i 34 -a 2 -x {5.2 3.0 1 ------- null}
h -t 0.203125 -s 0 -d 3 -p ack -e 40 -c 2 -i 34 -a 2 -x {5.2 3.0 -1 ------- null}
- -t 0.20875 -s 0 -d 5 -p tcp -e 1040 -c 0 -i 21 -a 0 -x {1.0 5.0 2 ------- null}
h -t 0.20875 -s 0 -d 5 -p tcp -e 1040 -c 0 -i 21 -a 0 -x {1.0 5.0 -1 ------- null}
- -t 0.20875 -s 2 -d 0 -p tcp -e 1040 -c 1 -i 33 -a 1 -x {2.0 5.1 4 ------- null}
h -t 0.20875 -s 2 -d 0 -p tcp -e 1040 -c 1 -i 33 -a 1 -x {2.0 5.1 -1 ------- null}
r -t 0.20875 -s 0 -d 3 -p ack -e 40 -c 2 -i 34 -a 2 -x {5.2 3.0 1 ------- null}
+ -t 0.20875 -s 3 -d 0 -p tcp -e 1040 -c 2 -i 35 -a 2 -x {3.0 5.2 3 ------- null}
- -t 0.20875 -s 3 -d 0 -p tcp -e 1040 -c 2 -i 35 -a 2 -x {3.0 5.2 3 ------- null}
h -t 0.20875 -s 3 -d 0 -p tcp -e 1040 -c 2 -i 35 -a 2 -x {3.0 5.2 -1 ------- null}
+ -t 0.20875 -s 3 -d 0 -p tcp -e 1040 -c 2 -i 36 -a 2 -x {3.0 5.2 4 ------- null}
r -t 0.21375 -s 1 -d 0 -p tcp -e 1040 -c 0 -i 30 -a 0 -x {1.0 5.0 4 ------- null}
+ -t 0.21375 -s 0 -d 5 -p tcp -e 1040 -c 0 -i 30 -a 0 -x {1.0 5.0 4 ------- null}
r -t 0.21375 -s 0 -d 5 -p tcp -e 1040 -c 3 -i 26 -a 3 -x {4.0 5.3 1 ------- null}
+ -t 0.21375 -s 5 -d 0 -p ack -e 40 -c 3 -i 37 -a 3 -x {5.3 4.0 1 ------- null}
- -t 0.21375 -s 5 -d 0 -p ack -e 40 -c 3 -i 37 -a 3 -x {5.3 4.0 1 ------- null}
h -t 0.21375 -s 5 -d 0 -p ack -e 40 -c 3 -i 37 -a 3 -x {5.3 4.0 -1 ------- null}
r -t 0.21375 -s 2 -d 0 -p tcp -e 1040 -c 1 -i 32 -a 1 -x {2.0 5.1 3 ------- null}
+ -t 0.21375 -s 0 -d 5 -p tcp -e 1040 -c 1 -i 32 -a 1 -x {2.0 5.1 3 ------- null}
r -t 0.219375 -s 5 -d 0 -p ack -e 40 -c 3 -i 37 -a 3 -x {5.3 4.0 1 ------- null}
+ -t 0.219375 -s 0 -d 4 -p ack -e 40 -c 3 -i 37 -a 3 -x {5.3 4.0 1 ------- null}
- -t 0.219375 -s 0 -d 4 -p ack -e 40 -c 3 -i 37 -a 3 -x {5.3 4.0 1 ------- null}
h -t 0.219375 -s 0 -d 4 -p ack -e 40 -c 3 -i 37 -a 3 -x {5.3 4.0 -1 ------- null}
+ -t 0.22058669092161 -s 4 -d 0 -p rtProtoDV -e 6 -c 0 -i 38 -a 0 -x {4.2 0.1 -1 ------- null}
- -t 0.22058669092161 -s 4 -d 0 -p rtProtoDV -e 6 -c 0 -i 38 -a 0 -x {4.2 0.1 -1 ------- null}
h -t 0.22058669092161 -s 4 -d 0 -p rtProtoDV -e 6 -c 0 -i 38 -a 0 -x {4.2 0.1 -1 ------- null}
- -t 0.225 -s 0 -d 5 -p tcp -e 1040 -c 1 -i 23 -a 1 -x {2.0 5.1 2 ------- null}
h -t 0.225 -s 0 -d 5 -p tcp -e 1040 -c 1 -i 23 -a 1 -x {2.0 5.1 -1 ------- null}
- -t 0.225 -s 3 -d 0 -p tcp -e 1040 -c 2 -i 36 -a 2 -x {3.0 5.2 4 ------- null}
h -t 0.225 -s 3 -d 0 -p tcp -e 1040 -c 2 -i 36 -a 2 -x {3.0 5.2 -1 ------- null}
r -t 0.225 -s 0 -d 4 -p ack -e 40 -c 3 -i 37 -a 3 -x {5.3 4.0 1 ------- null}
+ -t 0.225 -s 4 -d 0 -p tcp -e 1040 -c 3 -i 39 -a 3 -x {4.0 5.3 3 ------- null}
- -t 0.225 -s 4 -d 0 -p tcp -e 1040 -c 3 -i 39 -a 3 -x {4.0 5.3 3 ------- null}
h -t 0.225 -s 4 -d 0 -p tcp -e 1040 -c 3 -i 39 -a 3 -x {4.0 5.3 -1 ------- null}
+ -t 0.225 -s 4 -d 0 -p tcp -e 1040 -c 3 -i 40 -a 3 -x {4.0 5.3 4 ------- null}
r -t 0.22568044092161 -s 4 -d 0 -p rtProtoDV -e 6 -c 0 -i 38 -a 0 -x {4.2 0.1 -1 ------- null}
r -t 0.23 -s 0 -d 5 -p tcp -e 1040 -c 0 -i 21 -a 0 -x {1.0 5.0 2 ------- null}
+ -t 0.23 -s 5 -d 0 -p ack -e 40 -c 0 -i 41 -a 0 -x {5.0 1.0 2 ------- null}
- -t 0.23 -s 5 -d 0 -p ack -e 40 -c 0 -i 41 -a 0 -x {5.0 1.0 2 ------- null}
h -t 0.23 -s 5 -d 0 -p ack -e 40 -c 0 -i 41 -a 0 -x {5.0 1.0 -1 ------- null}
r -t 0.23 -s 2 -d 0 -p tcp -e 1040 -c 1 -i 33 -a 1 -x {2.0 5.1 4 ------- null}
+ -t 0.23 -s 0 -d 5 -p tcp -e 1040 -c 1 -i 33 -a 1 -x {2.0 5.1 4 ------- null}
r -t 0.23 -s 3 -d 0 -p tcp -e 1040 -c 2 -i 35 -a 2 -x {3.0 5.2 3 ------- null}
+ -t 0.23 -s 0 -d 5 -p tcp -e 1040 -c 2 -i 35 -a 2 -x {3.0 5.2 3 ------- null}
r -t 0.235625 -s 5 -d 0 -p ack -e 40 -c 0 -i 41 -a 0 -x {5.0 1.0 2 ------- null}
+ -t 0.235625 -s 0 -d 1 -p ack -e 40 -c 0 -i 41 -a 0 -x {5.0 1.0 2 ------- null}
- -t 0.235625 -s 0 -d 1 -p ack -e 40 -c 0 -i 41 -a 0 -x {5.0 1.0 2 ------- null}
h -t 0.235625 -s 0 -d 1 -p ack -e 40 -c 0 -i 41 -a 0 -x {5.0 1.0 -1 ------- null}
- -t 0.24125 -s 0 -d 5 -p tcp -e 1040 -c 2 -i 25 -a 2 -x {3.0 5.2 2 ------- null}
h -t 0.24125 -s 0 -d 5 -p tcp -e 1040 -c 2 -i 25 -a 2 -x {3.0 5.2 -1 ------- null}
- -t 0.24125 -s 4 -d 0 -p tcp -e 1040 -c 3 -i 40 -a 3 -x {4.0 5.3 4 ------- null}
h -t 0.24125 -s 4 -d 0 -p tcp -e 1040 -c 3 -i 40 -a 3 -x {4.0 5.3 -1 ------- null}
r -t 0.24125 -s 0 -d 1 -p ack -e 40 -c 0 -i 41 -a 0 -x {5.0 1.0 2 ------- null}
+ -t 0.24125 -s 1 -d 0 -p tcp -e 1040 -c 0 -i 42 -a 0 -x {1.0 5.0 5 ------- null}
- -t 0.24125 -s 1 -d 0 -p tcp -e 1040 -c 0 -i 42 -a 0 -x {1.0 5.0 5 ------- null}
h -t 0.24125 -s 1 -d 0 -p tcp -e 1040 -c 0 -i 42 -a 0 -x {1.0 5.0 -1 ------- null}
+ -t 0.24125 -s 1 -d 0 -p tcp -e 1040 -c 0 -i 43 -a 0 -x {1.0 5.0 6 ------- null}
r -t 0.24625 -s 0 -d 5 -p tcp -e 1040 -c 1 -i 23 -a 1 -x {2.0 5.1 2 ------- null}
+ -t 0.24625 -s 5 -d 0 -p ack -e 40 -c 1 -i 44 -a 1 -x {5.1 2.0 2 ------- null}
- -t 0.24625 -s 5 -d 0 -p ack -e 40 -c 1 -i 44 -a 1 -x {5.1 2.0 2 ------- null}
h -t 0.24625 -s 5 -d 0 -p ack -e 40 -c 1 -i 44 -a 1 -x {5.1 2.0 -1 ------- null}
r -t 0.24625 -s 3 -d 0 -p tcp -e 1040 -c 2 -i 36 -a 2 -x {3.0 5.2 4 ------- null}
+ -t 0.24625 -s 0 -d 5 -p tcp -e 1040 -c 2 -i 36 -a 2 -x {3.0 5.2 4 ------- null}
r -t 0.24625 -s 4 -d 0 -p tcp -e 1040 -c 3 -i 39 -a 3 -x {4.0 5.3 3 ------- null}
+ -t 0.24625 -s 0 -d 5 -p tcp -e 1040 -c 3 -i 39 -a 3 -x {4.0 5.3 3 ------- null}
r -t 0.251875 -s 5 -d 0 -p ack -e 40 -c 1 -i 44 -a 1 -x {5.1 2.0 2 ------- null}
+ -t 0.251875 -s 0 -d 2 -p ack -e 40 -c 1 -i 44 -a 1 -x {5.1 2.0 2 ------- null}
- -t 0.251875 -s 0 -d 2 -p ack -e 40 -c 1 -i 44 -a 1 -x {5.1 2.0 2 ------- null}
h -t 0.251875 -s 0 -d 2 -p ack -e 40 -c 1 -i 44 -a 1 -x {5.1 2.0 -1 ------- null}
- -t 0.2575 -s 0 -d 5 -p tcp -e 1040 -c 3 -i 27 -a 3 -x {4.0 5.3 2 ------- null}
h -t 0.2575 -s 0 -d 5 -p tcp -e 1040 -c 3 -i 27 -a 3 -x {4.0 5.3 -1 ------- null}
- -t 0.2575 -s 1 -d 0 -p tcp -e 1040 -c 0 -i 43 -a 0 -x {1.0 5.0 6 ------- null}
h -t 0.2575 -s 1 -d 0 -p tcp -e 1040 -c 0 -i 43 -a 0 -x {1.0 5.0 -1 ------- null}
r -t 0.2575 -s 0 -d 2 -p ack -e 40 -c 1 -i 44 -a 1 -x {5.1 2.0 2 ------- null}
+ -t 0.2575 -s 2 -d 0 -p tcp -e 1040 -c 1 -i 45 -a 1 -x {2.0 5.1 5 ------- null}
- -t 0.2575 -s 2 -d 0 -p tcp -e 1040 -c 1 -i 45 -a 1 -x {2.0 5.1 5 ------- null}
h -t 0.2575 -s 2 -d 0 -p tcp -e 1040 -c 1 -i 45 -a 1 -x {2.0 5.1 -1 ------- null}
+ -t 0.2575 -s 2 -d 0 -p tcp -e 1040 -c 1 -i 46 -a 1 -x {2.0 5.1 6 ------- null}
r -t 0.2625 -s 0 -d 5 -p tcp -e 1040 -c 2 -i 25 -a 2 -x {3.0 5.2 2 ------- null}
+ -t 0.2625 -s 5 -d 0 -p ack -e 40 -c 2 -i 47 -a 2 -x {5.2 3.0 2 ------- null}
- -t 0.2625 -s 5 -d 0 -p ack -e 40 -c 2 -i 47 -a 2 -x {5.2 3.0 2 ------- null}
h -t 0.2625 -s 5 -d 0 -p ack -e 40 -c 2 -i 47 -a 2 -x {5.2 3.0 -1 ------- null}
r -t 0.2625 -s 4 -d 0 -p tcp -e 1040 -c 3 -i 40 -a 3 -x {4.0 5.3 4 ------- null}
+ -t 0.2625 -s 0 -d 5 -p tcp -e 1040 -c 3 -i 40 -a 3 -x {4.0 5.3 4 ------- null}
r -t 0.2625 -s 1 -d 0 -p tcp -e 1040 -c 0 -i 42 -a 0 -x {1.0 5.0 5 ------- null}
+ -t 0.2625 -s 0 -d 5 -p tcp -e 1040 -c 0 -i 42 -a 0 -x {1.0 5.0 5 ------- null}
r -t 0.268125 -s 5 -d 0 -p ack -e 40 -c 2 -i 47 -a 2 -x {5.2 3.0 2 ------- null}
+ -t 0.268125 -s 0 -d 3 -p ack -e 40 -c 2 -i 47 -a 2 -x {5.2 3.0 2 ------- null}
- -t 0.268125 -s 0 -d 3 -p ack -e 40 -c 2 -i 47 -a 2 -x {5.2 3.0 2 ------- null}
h -t 0.268125 -s 0 -d 3 -p ack -e 40 -c 2 -i 47 -a 2 -x {5.2 3.0 -1 ------- null}
- -t 0.27375 -s 0 -d 5 -p tcp -e 1040 -c 0 -i 29 -a 0 -x {1.0 5.0 3 ------- null}
h -t 0.27375 -s 0 -d 5 -p tcp -e 1040 -c 0 -i 29 -a 0 -x {1.0 5.0 -1 ------- null}
- -t 0.27375 -s 2 -d 0 -p tcp -e 1040 -c 1 -i 46 -a 1 -x {2.0 5.1 6 ------- null}
h -t 0.27375 -s 2 -d 0 -p tcp -e 1040 -c 1 -i 46 -a 1 -x {2.0 5.1 -1 ------- null}
r -t 0.27375 -s 0 -d 3 -p ack -e 40 -c 2 -i 47 -a 2 -x {5.2 3.0 2 ------- null}
+ -t 0.27375 -s 3 -d 0 -p tcp -e 1040 -c 2 -i 48 -a 2 -x {3.0 5.2 5 ------- null}
- -t 0.27375 -s 3 -d 0 -p tcp -e 1040 -c 2 -i 48 -a 2 -x {3.0 5.2 5 ------- null}
h -t 0.27375 -s 3 -d 0 -p tcp -e 1040 -c 2 -i 48 -a 2 -x {3.0 5.2 -1 ------- null}
+ -t 0.27375 -s 3 -d 0 -p tcp -e 1040 -c 2 -i 49 -a 2 -x {3.0 5.2 6 ------- null}
+ -t 0.277940357931862 -s 1 -d 0 -p rtProtoDV -e 6 -c 0 -i 50 -a 0 -x {1.2 0.1 -1 ------- null}
- -t 0.277940357931862 -s 1 -d 0 -p rtProtoDV -e 6 -c 0 -i 50 -a 0 -x {1.2 0.1 -1 ------- null}
h -t 0.277940357931862 -s 1 -d 0 -p rtProtoDV -e 6 -c 0 -i 50 -a 0 -x {1.2 0.1 -1 ------- null}
r -t 0.27875 -s 0 -d 5 -p tcp -e 1040 -c 3 -i 27 -a 3 -x {4.0 5.3 2 ------- null}
+ -t 0.27875 -s 5 -d 0 -p ack -e 40 -c 3 -i 51 -a 3 -x {5.3 4.0 2 ------- null}
- -t 0.27875 -s 5 -d 0 -p ack -e 40 -c 3 -i 51 -a 3 -x {5.3 4.0 2 ------- null}
h -t 0.27875 -s 5 -d 0 -p ack -e 40 -c 3 -i 51 -a 3 -x {5.3 4.0 -1 ------- null}
r -t 0.27875 -s 1 -d 0 -p tcp -e 1040 -c 0 -i 43 -a 0 -x {1.0 5.0 6 ------- null}
+ -t 0.27875 -s 0 -d 5 -p tcp -e 1040 -c 0 -i 43 -a 0 -x {1.0 5.0 6 ------- null}
r -t 0.27875 -s 2 -d 0 -p tcp -e 1040 -c 1 -i 45 -a 1 -x {2.0 5.1 5 ------- null}
+ -t 0.27875 -s 0 -d 5 -p tcp -e 1040 -c 1 -i 45 -a 1 -x {2.0 5.1 5 ------- null}
r -t 0.283034107931862 -s 1 -d 0 -p rtProtoDV -e 6 -c 0 -i 50 -a 0 -x {1.2 0.1 -1 ------- null}
r -t 0.284375 -s 5 -d 0 -p ack -e 40 -c 3 -i 51 -a 3 -x {5.3 4.0 2 ------- null}
+ -t 0.284375 -s 0 -d 4 -p ack -e 40 -c 3 -i 51 -a 3 -x {5.3 4.0 2 ------- null}
- -t 0.284375 -s 0 -d 4 -p ack -e 40 -c 3 -i 51 -a 3 -x {5.3 4.0 2 ------- null}
h -t 0.284375 -s 0 -d 4 -p ack -e 40 -c 3 -i 51 -a 3 -x {5.3 4.0 -1 ------- null}
- -t 0.29 -s 0 -d 5 -p tcp -e 1040 -c 0 -i 30 -a 0 -x {1.0 5.0 4 ------- null}
h -t 0.29 -s 0 -d 5 -p tcp -e 1040 -c 0 -i 30 -a 0 -x {1.0 5.0 -1 ------- null}
- -t 0.29 -s 3 -d 0 -p tcp -e 1040 -c 2 -i 49 -a 2 -x {3.0 5.2 6 ------- null}
h -t 0.29 -s 3 -d 0 -p tcp -e 1040 -c 2 -i 49 -a 2 -x {3.0 5.2 -1 ------- null}
r -t 0.29 -s 0 -d 4 -p ack -e 40 -c 3 -i 51 -a 3 -x {5.3 4.0 2 ------- null}
+ -t 0.29 -s 4 -d 0 -p tcp -e 1040 -c 3 -i 52 -a 3 -x {4.0 5.3 5 ------- null}
- -t 0.29 -s 4 -d 0 -p tcp -e 1040 -c 3 -i 52 -a 3 -x {4.0 5.3 5 ------- null}
h -t 0.29 -s 4 -d 0 -p tcp -e 1040 -c 3 -i 52 -a 3 -x {4.0 5.3 -1 ------- null}
+ -t 0.29 -s 4 -d 0 -p tcp -e 1040 -c 3 -i 53 -a 3 -x {4.0 5.3 6 ------- null}
r -t 0.295 -s 0 -d 5 -p tcp -e 1040 -c 0 -i 29 -a 0 -x {1.0 5.0 3 ------- null}
+ -t 0.295 -s 5 -d 0 -p ack -e 40 -c 0 -i 54 -a 0 -x {5.0 1.0 3 ------- null}
- -t 0.295 -s 5 -d 0 -p ack -e 40 -c 0 -i 54 -a 0 -x {5.0 1.0 3 ------- null}
h -t 0.295 -s 5 -d 0 -p ack -e 40 -c 0 -i 54 -a 0 -x {5.0 1.0 -1 ------- null}
r -t 0.295 -s 2 -d 0 -p tcp -e 1040 -c 1 -i 46 -a 1 -x {2.0 5.1 6 ------- null}
+ -t 0.295 -s 0 -d 5 -p tcp -e 1040 -c 1 -i 46 -a 1 -x {2.0 5.1 6 ------- null}
r -t 0.295 -s 3 -d 0 -p tcp -e 1040 -c 2 -i 48 -a 2 -x {3.0 5.2 5 ------- null}
+ -t 0.295 -s 0 -d 5 -p tcp -e 1040 -c 2 -i 48 -a 2 -x {3.0 5.2 5 ------- null}
r -t 0.300625 -s 5 -d 0 -p ack -e 40 -c 0 -i 54 -a 0 -x {5.0 1.0 3 ------- null}
+ -t 0.300625 -s 0 -d 1 -p ack -e 40 -c 0 -i 54 -a 0 -x {5.0 1.0 3 ------- null}
- -t 0.300625 -s 0 -d 1 -p ack -e 40 -c 0 -i 54 -a 0 -x {5.0 1.0 3 ------- null}
h -t 0.300625 -s 0 -d 1 -p ack -e 40 -c 0 -i 54 -a 0 -x {5.0 1.0 -1 ------- null}
- -t 0.30625 -s 0 -d 5 -p tcp -e 1040 -c 1 -i 32 -a 1 -x {2.0 5.1 3 ------- null}
h -t 0.30625 -s 0 -d 5 -p tcp -e 1040 -c 1 -i 32 -a 1 -x {2.0 5.1 -1 ------- null}
- -t 0.30625 -s 4 -d 0 -p tcp -e 1040 -c 3 -i 53 -a 3 -x {4.0 5.3 6 ------- null}
h -t 0.30625 -s 4 -d 0 -p tcp -e 1040 -c 3 -i 53 -a 3 -x {4.0 5.3 -1 ------- null}
r -t 0.30625 -s 0 -d 1 -p ack -e 40 -c 0 -i 54 -a 0 -x {5.0 1.0 3 ------- null}
+ -t 0.30625 -s 1 -d 0 -p tcp -e 1040 -c 0 -i 55 -a 0 -x {1.0 5.0 7 ------- null}
- -t 0.30625 -s 1 -d 0 -p tcp -e 1040 -c 0 -i 55 -a 0 -x {1.0 5.0 7 ------- null}
h -t 0.30625 -s 1 -d 0 -p tcp -e 1040 -c 0 -i 55 -a 0 -x {1.0 5.0 -1 ------- null}
+ -t 0.30625 -s 1 -d 0 -p tcp -e 1040 -c 0 -i 56 -a 0 -x {1.0 5.0 8 ------- null}
r -t 0.31125 -s 0 -d 5 -p tcp -e 1040 -c 0 -i 30 -a 0 -x {1.0 5.0 4 ------- null}
+ -t 0.31125 -s 5 -d 0 -p ack -e 40 -c 0 -i 57 -a 0 -x {5.0 1.0 4 ------- null}
- -t 0.31125 -s 5 -d 0 -p ack -e 40 -c 0 -i 57 -a 0 -x {5.0 1.0 4 ------- null}
h -t 0.31125 -s 5 -d 0 -p ack -e 40 -c 0 -i 57 -a 0 -x {5.0 1.0 -1 ------- null}
r -t 0.31125 -s 3 -d 0 -p tcp -e 1040 -c 2 -i 49 -a 2 -x {3.0 5.2 6 ------- null}
+ -t 0.31125 -s 0 -d 5 -p tcp -e 1040 -c 2 -i 49 -a 2 -x {3.0 5.2 6 ------- null}
r -t 0.31125 -s 4 -d 0 -p tcp -e 1040 -c 3 -i 52 -a 3 -x {4.0 5.3 5 ------- null}
+ -t 0.31125 -s 0 -d 5 -p tcp -e 1040 -c 3 -i 52 -a 3 -x {4.0 5.3 5 ------- null}