V -t * -v 1.0a5 -a 0
A -t * -n 1 -p 0 -o 0x7fffffff -c 30 -a 1
A -t * -h 1 -m 1073741823 -s 0
c -t * -i 1 -n Blue
n -t * -a 0 -s 0 -S UP -v circle -c black -i black
n -t * -a 1 -s 1 -S UP -v circle -c black -i black
n -t * -a 2 -s 2 -S UP -v circle -c black -i black
l -t * -s 0 -d 1 -S UP -r 10000000 -D 0.001 -c black
l -t * -s 1 -d 2 -S UP -r 1000000 -D 0.001 -c black
+ -t 0.1 -s 0 -d 1 -p tcp -e 40 -c 1 -i 0 -a 1 -x {0.0 2.0 0 ------- null}
- -t 0.1 -s 0 -d 1 -p tcp -e 40 -c 1 -i 0 -a 1 -x {0.0 2.0 0 ------- null}
h -t 0.1 -s 0 -d 1 -p tcp -e 40 -c 1 -i 0 -a 1 -x {0.0 2.0 -1 ------- null}
r -t 0.101032 -s 0 -d 1 -p tcp -e 40 -c 1 -i 0 -a 1 -x {0.0 2.0 0 ------- null}
+ -t 0.101032 -s 1 -d 2 -p tcp -e 40 -c 1 -i 0 -a 1 -x {0.0 2.0 0 ------- null}
- -t 0.101032 -s 1 -d 2 -p tcp -e 40 -c 1 -i 0 -a 1 -x {0.0 2.0 0 ------- null}
h -t 0.101032 -s 1 -d 2 -p tcp -e 40 -c 1 -i 0 -a 1 -x {0.0 2.0 -1 ------- null}
r -t 0.102352 -s 1 -d 2 -p tcp -e 40 -c 1 -i 0 -a 1 -x {0.0 2.0 0 ------- null}
+ -t 0.102352 -s 2 -d 1 -p ack -e 40 -c 1 -i 1 -a 1 -x {2.0 0.0 0 ------- null}
- -t 0.102352 -s 2 -d 1 -p ack -e 40 -c 1 -i 1 -a 1 -x {2.0 0.0 0 ------- null}
h -t 0.102352 -s 2 -d 1 -p ack -e 40 -c 1 -i 1 -a 1 -x {2.0 0.0 -1 ------- null}
r -t 0.103672 -s 2 -d 1 -p ack -e 40 -c 1 -i 1 -a 1 -x {2.0 0.0 0 ------- null}
+ -t 0.103672 -s 1 -d 0 -p ack -e 40 -c 1 -i 1 -a 1 -x {2.0 0.0 0 ------- null}
- -t 0.103672 -s 1 -d 0 -p ack -e 40 -c 1 -i 1 -a 1 -x {2.0 0.0 0 ------- null}
h -t 0.103672 -s 1 -d 0 -p ack -e 40 -c 1 -i 1 -a 1 -x {2.0 0.0 -1 ------- null}
r -t 0.104704 -s 1 -d 0 -p ack -e 40 -c 1 -i 1 -a 1 -x {2.0 0.0 0 ------- null}
+ -t 0.104704 -s 0 -d 1 -p tcp -e 1040 -c 1 -i 2 -a 1 -x {0.0 2.0 1 ------- null}
- -t 0.104704 -s 0 -d 1 -p tcp -e 1040 -c 1 -i 2 -a 1 -x {0.0 2.0 1 ------- null}
h -t 0.104704 -s 0 -d 1 -p tcp -e 1040 -c 1 -i 2 -a 1 -x {0.0 2.0 -1 ------- null}
+ -t 0.104704 -s 0 -d 1 -p tcp -e 1040 -c 1 -i 3 -a 1 -x {0.0 2.0 2 ------- null}
- -t 0.105536 -s 0 -d 1 -p tcp -e 1040 -c 1 -i 3 -a 1 -x {0.0 2.0 2 ------- null}
h -t 0.105536 -s 0 -d 1 -p tcp -e 1040 -c 1 -i 3 -a 1 -x {0.0 2.0 -1 ------- null}
r -t 0.106536 -s 0 -d 1 -p tcp -e 1040 -c 1 -i 2 -a 1 -x {0.0 2.0 1 ------- null}
+ -t 0.106536 -s 1 -d 2 -p tcp -e 1040 -c 1 -i 2 -a 1 -x {0.0 2.0 1 ------- null}
- -t 0.106536 -s 1 -d 2 -p tcp -e 1040 -c 1 -i 2 -a 1 -x {0.0 2.0 1 ------- null}
h -t 0.106536 -s 1 -d 2 -p tcp -e 1040 -c 1 -i 2 -a 1 -x {0.0 2.0 -1 ------- null}
r -t 0.107368 -s 0 -d 1 -p tcp -e 1040 -c 1 -i 3 -a 1 -x {0.0 2.0 2 ------- null}
+ -t 0.107368 -s 1 -d 2 -p tcp -e 1040 -c 1 -i 3 -a 1 -x {0.0 2.0 2 ------- null}
- -t 0.114856 -s 1 -d 2 -p tcp -e 1040 -c 1 -i 3 -a 1 -x {0.0 2.0 2 ------- null}
h -t 0.114856 -s 1 -d 2 -p tcp -e 1040 -c 1 -i 3 -a 1 -x {0.0 2.0 -1 ------- null}
r -t 0.115856 -s 1 -d 2 -p tcp -e 1040 -c 1 -i 2 -a 1 -x {0.0 2.0 1 ------- null}
+ -t 0.115856 -s 2 -d 1 -p ack -e 40 -c 1 -i 4 -a 1 -x {2.0 0.0 1 ------- null}
- -t 0.115856 -s 2 -d 1 -p ack -e 40 -c 1 -i 4 -a 1 -x {2.0 0.0 1 ------- null}
h -t 0.115856 -s 2 -d 1 -p ack -e 40 -c 1 -i 4 -a 1 -x {2.0 0.0 -1 ------- null}
r -t 0.117176 -s 2 -d 1 -p ack -e 40 -c 1 -i 4 -a 1 -x {2.0 0.0 1 ------- null}
+ -t 0.117176 -s 1 -d 0 -p ack -e 40 -c 1 -i 4 -a 1 -x {2.0 0.0 1 ------- null}
- -t 0.117176 -s 1 -d 0 -p ack -e 40 -c 1 -i 4 -a 1 -x {2.0 0.0 1 ------- null}
h -t 0.117176 -s 1 -d 0 -p ack -e 40 -c 1 -i 4 -a 1 -x {2.0 0.0 -1 ------- null}
r -t 0.118208 -s 1 -d 0 -p ack -e 40 -c 1 -i 4 -a 1 -x {2.0 0.0 1 ------- null}
+ -t 0.118208 -s 0 -d 1 -p tcp -e 1040 -c 1 -i 5 -a 1 -x {0.0 2.0 3 ------- null}
- -t 0.118208 -s 0 -d 1 -p tcp -e 1040 -c 1 -i 5 -a 1 -x {0.0 2.0 3 ------- null}
h -t 0.118208 -s 0 -d 1 -p tcp -e 1040 -c 1 -i 5 -a 1 -x {0.0 2.0 -1 ------- null}
+ -t 0.118208 -s 0 -d 1 -p tcp -e 1040 -c 1 -i 6 -a 1 -x {0.0 2.0 4 ------- null}
- -t 0.11904 -s 0 -d 1 -p tcp -e 1040 -c 1 -i 6 -a 1 -x {0.0 2.0 4 ------- null}
h -t 0.11904 -s 0 -d 1 -p tcp -e 1040 -c 1 -i 6 -a 1 -x {0.0 2.0 -1 ------- null}
r -t 0.12004 -s 0 -d 1 -p tcp -e 1040 -c 1 -i 5 -a 1 -x {0.0 2.0 3 ------- null}
+ -t 0.12004 -s 1 -d 2 -p tcp -e 1040 -c 1 -i 5 -a 1 -x {0.0 2.0 3 ------- null}
r -t 0.120872 -s 0 -d 1 -p tcp -e 1040 -c 1 -i 6 -a 1 -x {0.0 2.0 4 ------- null}
+ -t 0.120872 -s 1 -d 2 -p tcp -e 1040 -c 1 -i 6 -a 1 -x {0.0 2.0 4 ------- null}
- -t 0.123176 -s 1 -d 2 -p tcp -e 1040 -c 1 -i 5 -a 1 -x {0.0 2.0 3 ------- null}
h -t 0.123176 -s 1 -d 2 -p tcp -e 1040 -c 1 -i 5 -a 1 -x {0.0 2.0 -1 ------- null}
r -t 0.124176 -s 1 -d 2 -p tcp -e 1040 -c 1 -i 3 -a 1 -x {0.0 2.0 2 ------- null}
+ -t 0.124176 -s 2 -d 1 -p ack -e 40 -c 1 -i 7 -a 1 -x {2.0 0.0 2 ------- null}
- -t 0.124176 -s 2 -d 1 -p ack -e 40 -c 1 -i 7 -a 1 -x {2.0 0.0 2 ------- null}
h -t 0.124176 -s 2 -d 1 -p ack -e 40 -c 1 -i 7 -a 1 -x {2.0 0.0 -1 ------- null}
r -t 0.125496 -s 2 -d 1 -p ack -e 40 -c 1 -i 7 -a 1 -x {2.0 0.0 2 ------- null}
+ -t 0.125496 -s 1 -d 0 -p ack -e 40 -c 1 -i 7 -a 1 -x {2.0 0.0 2 ------- null}
- -t 0.125496 -s 1 -d 0 -p ack -e 40 -c 1 -i 7 -a 1 -x {2.0 0.0 2 ------- null}
h -t 0.125496 -s 1 -d 0 -p ack -e 40 -c 1 -i 7 -a 1 -x {2.0 0.0 -1 ------- null}
r -t 0.126528 -s 1 -d 0 -p ack -e 40 -c 1 -i 7 -a 1 -x {2.0 0.0 2 ------- null}
+ -t 0.126528 -s 0 -d 1 -p tcp -e 1040 -c 1 -i 8 -a 1 -x {0.0 2.0 5 ------- null}
- -t 0.126528 -s 0 -d 1 -p tcp -e 1040 -c 1 -i 8 -a 1 -x {0.0 2.0 5 ------- null}
h -t 0.126528 -s 0 -d 1 -p tcp -e 1040 -c 1 -i 8 -a 1 -x {0.0 2.0 -1 ------- null}
+ -t 0.126528 -s 0 -d 1 -p tcp -e 1040 -c 1 -i 9 -a 1 -x {0.0 2.0 6 ------- null}
- -t 0.12736 -s 0 -d 1 -p tcp -e 1040 -c 1 -i 9 -a 1 -x {0.0 2.0 6 ------- null}
h -t 0.12736 -s 0 -d 1 -p tcp -e 1040 -c 1 -i 9 -a 1 -x {0.0 2.0 -1 ------- null}
r -t 0.12836 -s 0 -d 1 -p tcp -e 1040 -c 1 -i 8 -a 1 -x {0.0 2.0 5 ------- null}
+ -t 0.12836 -s 1 -d 2 -p tcp -e 1040 -c 1 -i 8 -a 1 -x {0.0 2.0 5 ------- null}
r -t 0.129192 -s 0 -d 1 -p tcp -e 1040 -c 1 -i 9 -a 1 -x {0.0 2.0 6 ------- null}
+ -t 0.129192 -s 1 -d 2 -p tcp -e 1040 -c 1 -i 9 -a 1 -x {0.0 2.0 6 ------- null}
- -t 0.131496 -s 1 -d 2 -p tcp -e 1040 -c 1 -i 6 -a 1 -x {0.0 2.0 4 ------- null}
h -t 0.131496 -s 1 -d 2 -p tcp -e 1040 -c 1 -i 6 -a 1 -x {0.0 2.0 -1 ------- null}
r -t 0.132496 -s 1 -d 2 -p tcp -e 1040 -c 1 -i 5 -a 1 -x {0.0 2.0 3 ------- null}
+ -t 0.132496 -s 2 -d 1 -p ack -e 40 -c 1 -i 10 -a 1 -x {2.0 0.0 3 ------- null}
- -t 0.132496 -s 2 -d 1 -p ack -e 40 -c 1 -i 10 -a 1 -x {2.0 0.0 3 ------- null}
h -t 0.132496 -s 2 -d 1 -p ack -e 40 -c 1 -i 10 -a 1 -x {2.0 0.0 -1 ------- null}
r -t 0.133816 -s 2 -d 1 -p ack -e 40 -c 1 -i 10 -a 1 -x {2.0 0.0 3 ------- null}
+ -t 0.133816 -s 1 -d 0 -p ack -e 40 -c 1 -i 10 -a 1 -x {2.0 0.0 3 ------- null}
- -t 0.133816 -s 1 -d 0 -p ack -e 40 -c 1 -i 10 -a 1 -x {2.0 0.0 3 ------- null}
h -t 0.133816 -s 1 -d 0 -p ack -e 40 -c 1 -i 10 -a 1 -x {2.0 0.0 -1 ------- null}
r -t 0.134848 -s 1 -d 0 -p ack -e 40 -c 1 -i 10 -a 1 -x {2.0 0.0 3 ------- null}
+ -t 0.134848 -s 0 -d 1 -p tcp -e 1040 -c 1 -i 11 -a 1 -x {0.0 2.0 7 ------- null}
- -t 0.134848 -s 0 -d 1 -p tcp -e 1040 -c 1 -i 11 -a 1 -x {0.0 2.0 7 ------- null}
h -t 0.134848 -s 0 -d 1 -p tcp -e 1040 -c 1 -i 11 -a 1 -x {0.0 2.0 -1 ------- null}
+ -t 0.134848 -s 0 -d 1 -p tcp -e 1040 -c 1 -i 12 -a 1 -x {0.0 2.0 8 ------- null}
- -t 0.13568 -s 0 -d 1 -p tcp -e 1040 -c 1 -i 12 -a 1 -x {0.0 2.0 8 ------- null}
h -t 0.13568 -s 0 -d 1 -p tcp -e 1040 -c 1 -i 12 -a 1 -x {0.0 2.0 -1 ------- null}
r -t 0.13668 -s 0 -d 1 -p tcp -e 1040 -c 1 -i 11 -a 1 -x {0.0 2.0 7 ------- null}
+ -t 0.13668 -s 1 -d 2 -p tcp -e 1040 -c 1 -i 11 -a 1 -x {0.0 2.0 7 ------- null}
r -t 0.137512 -s 0 -d 1 -p tcp -e 1040 -c 1 -i 12 -a 1 -x {0.0 2.0 8 ------- null}
+ -t 0.137512 -s 1 -d 2 -p tcp -e 1040 -c 1 -i 12 -a 1 -x {0.0 2.0 8 ------- null}
- -t 0.139816 -s 1 -d 2 -p tcp -e 1040 -c 1 -i 8 -a 1 -x {0.0 2.0 5 ------- null}
h -t 0.139816 -s 1 -d 2 -p tcp -e 1040 -c 1 -i 8 -a 1 -x {0.0 2.0 -1 ------- null}
r -t 0.140816 -s 1 -d 2 -p tcp -e 1040 -c 1 -i 6 -a 1 -x {0.0 2.0 4 ------- null}
+ -t 0.140816 -s 2 -d 1 -p ack -e 40 -c 1 -i 13 -a 1 -x {2.0 0.0 4 ------- null}
- -t 0.140816 -s 2 -d 1 -p ack -e 40 -c 1 -i 13 -a 1 -x {2.0 0.0 4 ------- null}
h -t 0.140816 -s 2 -d 1 -p ack -e 40 -c 1 -i 13 -a 1 -x {2.0 0.0 -1 ------- null}
r -t 0.142136 -s 2 -d 1 -p ack -e 40 -c 1 -i 13 -a 1 -x {2.0 0.0 4 ------- null}
+ -t 0.142136 -s 1 -d 0 -p ack -e 40 -c 1 -i 13 -a 1 -x {2.0 0.0 4 ------- null}
- -t 0.142136 -s 1 -d 0 -p ack -e 40 -c 1 -i 13 -a 1 -x {2.0 0.0 4 ------- null}
h -t 0.142136 -s 1 -d 0 -p ack -e 40 -c 1 -i 13 -a 1 -x {2.0 0.0 -1 ------- null}
r -t 0.143168 -s 1 -d 0 -p ack -e 40 -c 1 -i 13 -a 1 -x {2.0 0.0 4 ------- null}
+ -t 0.143168 -s 0 -d 1 -p tcp -e 1040 -c 1 -i 14 -a 1 -x {0.0 2.0 9 ------- null}
- -t 0.143168 -s 0 -d 1 -p tcp -e 1040 -c 1 -i 14 -a 1 -x {0.0 2.0 9 ------- null}
h -t 0.143168 -s 0 -d 1 -p tcp -e 1040 -c 1 -i 14 -a 1 -x {0.0 2.0 -1 ------- null}
+ -t 0.143168 -s 0 -d 1 -p tcp -e 1040 -c 1 -i 15 -a 1 -x {0.0 2.0 10 ------- null}
- -t 0.144 -s 0 -d 1 -p tcp -e 1040 -c 1 -i 15 -a 1 -x {0.0 2.0 10 ------- null}
h -t 0.144 -s 0 -d 1 -p tcp -e 1040 -c 1 -i 15 -a 1 -x {0.0 2.0 -1 ------- null}
r -t 0.145 -s 0 -d 1 -p tcp -e 1040 -c 1 -i 14 -a 1 -x {0.0 2.0 9 ------- null}
+ -t 0.145 -s 1 -d 2 -p tcp -e 1040 -c 1 -i 14 -a 1 -x {0.0 2.0 9 ------- null}
r -t 0.145832 -s 0 -d 1 -p tcp -e 1040 -c 1 -i 15 -a 1 -x {0.0 2.0 10 ------- null}
+ -t 0.145832 -s 1 -d 2 -p tcp -e 1040 -c 1 -i 15 -a 1 -x {0.0 2.0 10 ------- null}
- -t 0.148136 -s 1 -d 2 -p tcp -e 1040 -c 1 -i 9 -a 1 -x {0.0 2.0 6 ------- null}
h -t 0.148136 -s 1 -d 2 -p tcp -e 1040 -c 1 -i 9 -a 1 -x {0.0 2.0 -1 ------- null}
r -t 0.149136 -s 1 -d 2 -p tcp -e 1040 -c 1 -i 8 -a 1 -x {0.0 2.0 5 ------- null}
+ -t 0.149136 -s 2 -d 1 -p ack -e 40 -c 1 -i 16 -a 1 -x {2.0 0.0 5 ------- null}
- -t 0.149136 -s 2 -d 1 -p ack -e 40 -c 1 -i 16 -a 1 -x {2.0 0.0 5 ------- null}
h -t 0.149136 -s 2 -d 1 -p ack -e 40 -c 1 -i 16 -a 1 -x {2.0 0.0 -1 ------- null}
r -t 0.150456 -s 2 -d 1 -p ack -e 40 -c 1 -i 16 -a 1 -x {2.0 0.0 5 ------- null}
+ -t 0.150456 -s 1 -d 0 -p ack -e 40 -c 1 -i 16 -a 1 -x {2.0 0.0 5 ------- null}
- -t 0.150456 -s 1 -d 0 -p ack -e 40 -c 1 -i 16 -a 1 -x {2.0 0.0 5 ------- null}
h -t 0.150456 -s 1 -d 0 -p ack -e 40 -c 1 -i 16 -a 1 -x {2.0 0.0 -1 ------- null}
r -t 0.151488 -s 1 -d 0 -p ack -e 40 -c 1 -i 16 -a 1 -x {2.0 0.0 5 ------- null}
+ -t 0.151488 -s 0 -d 1 -p tcp -e 1040 -c 1 -i 17 -a 1 -x {0.0 2.0 11 ------- null}
- -t 0.151488 -s 0 -d 1 -p tcp -e 1040 -c 1 -i 17 -a 1 -x {0.0 2.0 11 ------- null}
h -t 0.151488 -s 0 -d 1 -p tcp -e 1040 -c 1 -i 17 -a 1 -x {0.0 2.0 -1 ------- null}
+ -t 0.151488 -s 0 -d 1 -p tcp -e 1040 -c 1 -i 18 -a 1 -x {0.0 2.0 12 ------- null}
- -t 0.15232 -s 0 -d 1 -p tcp -e 1040 -c 1 -i 18 -a 1 -x {0.0 2.0 12 ------- null}
h -t 0.15232 -s 0 -d 1 -p tcp -e 1040 -c 1 -i 18 -a 1 -x {0.0 2.0 -1 ------- null}
r -t 0.15332 -s 0 -d 1 -p tcp -e 1040 -c 1 -i 17 -a 1 -x {0.0 2.0 11 ------- null}
+ -t 0.15332 -s 1 -d 2 -p tcp -e 1040 -c 1 -i 17 -a 1 -x {0.0 2.0 11 ------- null}
r -t 0.154152 -s 0 -d 1 -p tcp -e 1040 -c 1 -i 18 -a 1 -x {0.0 2.0 12 ------- null}
+ -t 0.154152 -s 1 -d 2 -p tcp -e 1040 -c 1 -i 18 -a 1 -x {0.0 2.0 12 ------- null}
- -t 0.156456 -s 1 -d 2 -p tcp -e 1040 -c 1 -i 11 -a 1 -x {0.0 2.0 7 ------- null}
h -t 0.156456 -s 1 -d 2 -p tcp -e 1040 -c 1 -i 11 -a 1 -x {0.0 2.0 -1 ------- null}
r -t 0.157456 -s 1 -d 2 -p tcp -e 1040 -c 1 -i 9 -a 1 -x {0.0 2.0 6 ------- null}
+ -t 0.157456 -s 2 -d 1 -p ack -e 40 -c 1 -i 19 -a 1 -x {2.0 0.0 6 ------- null}
- -t 0.157456 -s 2 -d 1 -p ack -e 40 -c 1 -i 19 -a 1 -x {2.0 0.0 6 ------- null}
h -t 0.157456 -s 2 -d 1 -p ack -e 40 -c 1 -i 19 -a 1 -x {2.0 0.0 -1 ------- null}
r -t 0.158776 -s 2 -d 1 -p ack -e 40 -c 1 -i 19 -a 1 -x {2.0 0.0 6 ------- null}
+ -t 0.158776 -s 1 -d 0 -p ack -e 40 -c 1 -i 19 -a 1 -x {2.0 0.0 6 ------- null}
- -t 0.158776 -s 1 -d 0 -p ack -e 40 -c 1 -i 19 -a 1 -x {2.0 0.0 6 ------- null}
h -t 0.158776 -s 1 -d 0 -p ack -e 40 -c 1 -i 19 -a 1 -x {2.0 0.0 -1 ------- null}
r -t 0.159808 -s 1 -d 0 -p ack -e 40 -c 1 -i 19 -a 1 -x {2.0 0.0 6 ------- null}
+ -t 0.159808 -s 0 -d 1 -p tcp -e 1040 -c 1 -i 20 -a 1 -x {0.0 2.0 13 ------- null}
- -t 0.159808 -s 0 -d 1 -p tcp -e 1040 -c 1 -i 20 -a 1 -x {0.0 2.0 13 ------- null}
h -t 0.159808 -s 0 -d 1 -p tcp -e 1040 -c 1 -i 20 -a 1 -x {0.0 2.0 -1 ------- null}
+ -t 0.159808 -s 0 -d 1 -p tcp -e 1040 -c 1 -i 21 -a 1 -x {0.0 2.0 14 ------- null}
- -t 0.16064 -s 0 -d 1 -p tcp -e 1040 -c 1 -i 21 -a 1 -x {0.0 2.0 14 ------- null}
h -t 0.16064 -s 0 -d 1 -p tcp -e 1040 -c 1 -i 21 -a 1 -x {0.0 2.0 -1 ------- null}
r -t 0.16164 -s 0 -d 1 -p tcp -e 1040 -c 1 -i 20 -a 1 -x {0.0 2.0 13 ------- null}
+ -t 0.16164 -s 1 -d 2 -p tcp -e 1040 -c 1 -i 20 -a 1 -x {0.0 2.0 13 ------- null}
r -t 0.162472 -s 0 -d 1 -p tcp -e 1040 -c 1 -i 21 -a 1 -x {0.0 2.0 14 ------- null}
+ -t 0.162472 -s 1 -d 2 -p tcp -e 1040 -c 1 -i 21 -a 1 -x {0.0 2.0 14 ------- null}
d -t 0.162472 -s 1 -d 2 -p tcp -e 1040 -c 1 -i 21 -a 1 -x {0.0 2.0 14 ------- null}
- -t 0.164776 -s 1 -d 2 -p tcp -e 1040 -c 1 -i 12 -a 1 -x {0.0 2.0 8 ------- null}
h -t 0.164776 -s 1 -d 2 -p tcp -e 1040 -c 1 -i 12 -a 1 -x {0.0 2.0 -1 ------- null}
r -t 0.165776 -s 1 -d 2 -p tcp -e 1040 -c 1 -i 11 -a 1 -x {0.0 2.0 7 ------- null}
+ -t 0.165776 -s 2 -d 1 -p ack -e 40 -c 1 -i 22 -a 1 -x {2.0 0.0 7 ------- null}
- -t 0.165776 -s 2 -d 1 -p ack -e 40 -c 1 -i 22 -a 1 -x {2.0 0.0 7 ------- null}
h -t 0.165776 -s 2 -d 1 -p ack -e 40 -c 1 -i 22 -a 1 -x {2.0 0.0 -1 ------- null}
r -t 0.167096 -s 2 -d 1 -p ack -e 40 -c 1 -i 22 -a 1 -x {2.0 0.0 7 ------- null}
+ -t 0.167096 -s 1 -d 0 -p ack -e 40 -c 1 -i 22 -a 1 -x {2.0 0.0 7 ------- null}
- -t 0.167096 -s 1 -d 0 -p ack -e 40 -c 1 -i 22 -a 1 -x {2.0 0.0 7 ------- null}
h -t 0.167096 -s 1 -d 0 -p ack -e 40 -c 1 -i 22 -a 1 -x {2.0 0.0 -1 ------- null}
r -t 0.168128 -s 1 -d 0 -p ack -e 40 -c 1 -i 22 -a 1 -x {2.0 0.0 7 ------- null}
+ -t 0.168128 -s 0 -d 1 -p tcp -e 1040 -c 1 -i 23 -a 1 -x {0.0 2.0 15 ------- null}
- -t 0.168128 -s 0 -d 1 -p tcp -e 1040 -c 1 -i 23 -a 1 -x {0.0 2.0 15 ------- null}
h -t 0.168128 -s 0 -d 1 -p tcp -e 1040 -c 1 -i 23 -a 1 -x {0.0 2.0 -1 ------- null}
+ -t 0.168128 -s 0 -d 1 -p tcp -e 1040 -c 1 -i 24 -a 1 -x {0.0 2.0 16 ------- null}
- -t 0.16896 -s 0 -d 1 -p tcp -e 1040 -c 1 -i 24 -a 1 -x {0.0 2.0 16 ------- null}
h -t 0.16896 -s 0 -d 1 -p tcp -e 1040 -c 1 -i 24 -a 1 -x {0.0 2.0 -1 ------- null}
r -t 0.16996 -s 0 -d 1 -p tcp -e 1040 -c 1 -i 23 -a 1 -x {0.0 2.0 15 ------- null}
+ -t 0.16996 -s 1 -d 2 -p tcp -e 1040 -c 1 -i 23 -a 1 -x {0.0 2.0 15 ------- null}
r -t 0.170792 -s 0 -d 1 -p tcp -e 1040 -c 1 -i 24 -a 1 -x {0.0 2.0 16 ------- null}
+ -t 0.170792 -s 1 -d 2 -p tcp -e 1040 -c 1 -i 24 -a 1 -x {0.0 2.0 16 ------- null}
d -t 0.170792 -s 1 -d 2 -p tcp -e 1040 -c 1 -i 24 -a 1 -x {0.0 2.0 16 ------- null}
- -t 0.173096 -s 1 -d 2 -p tcp -e 1040 -c 1 -i 14 -a 1 -x {0.0 2.0 9 ------- null}
h -t 0.173096 -s 1 -d 2 -p tcp -e 1040 -c 1 -i 14 -a 1 -x {0.0 2.0 -1 ------- null}
r -t 0.174096 -s 1 -d 2 -p tcp -e 1040 -c 1 -i 12 -a 1 -x {0.0 2.0 8 ------- null}
+ -t 0.174096 -s 2 -d 1 -p ack -e 40 -c 1 -i 25 -a 1 -x {2.0 0.0 8 ------- null}
- -t 0.174096 -s 2 -d 1 -p ack -e 40 -c 1 -i 25 -a 1 -x {2.0 0.0 8 ------- null}
h -t 0.174096 -s 2 -d 1 -p ack -e 40 -c 1 -i 25 -a 1 -x {2.0 0.0 -1 ------- null}
r -t 0.175416 -s 2 -d 1 -p ack -e 40 -c 1 -i 25 -a 1 -x {2.0 0.0 8 ------- null}
+ -t 0.175416 -s 1 -d 0 -p ack -e 40 -c 1 -i 25 -a 1 -x {2.0 0.0 8 ------- null}
- -t 0.175416 -s 1 -d 0 -p ack -e 40 -c 1 -i 25 -a 1 -x {2.0 0.0 8 ------- null}
h -t 0.175416 -s 1 -d 0 -p ack -e 40 -c 1 -i 25 -a 1 -x {2.0 0.0 -1 ------- null}
r -t 0.176448 -s 1 -d 0 -p ack -e 40 -c 1 -i 25 -a 1 -x {2.0 0.0 8 ------- null}
+ -t 0.176448 -s 0 -d 1 -p tcp -e 1040 -c 1 -i 26 -a 1 -x {0.0 2.0 17 ------- null}
- -t 0.176448 -s 0 -d 1 -p tcp -e 1040 -c 1 -i 26 -a 1 -x {0.0 2.0 17 ------- null}
h -t 0.176448 -s 0 -d 1 -p tcp -e 1040 -c 1 -i 26 -a 1 -x {0.0 2.0 -1 ------- null}
+ -t 0.176448 -s 0 -d 1 -p tcp -e 1040 -c 1 -i 27 -a 1 -x {0.0 2.0 18 ------- null}
- -t 0.17728 -s 0 -d 1 -p tcp -e 1040 -c 1 -i 27 -a 1 -x {0.0 2.0 18 ------- null}
h -t 0.17728 -s 0 -d 1 -p tcp -e 1040 -c 1 -i 27 -a 1 -x {0.0 2.0 -1 ------- null}
r -t 0.17828 -s 0 -d 1 -p tcp -e 1040 -c 1 -i 26 -a 1 -x {0.0 2.0 17 ------- null}
+ -t 0.17828 -s 1 -d 2 -p tcp -e 1040 -c 1 -i 26 -a 1 -x {0.0 2.0 17 ------- null}
r -t 0.179112 -s 0 -d 1 -p tcp -e 1040 -c 1 -i 27 -a 1 -x {0.0 2.0 18 ------- null}
+ -t 0.179112 -s 1 -d 2 -p tcp -e 1040 -c 1 -i 27 -a 1 -x {0.0 2.0 18 ------- null}
d -t 0.179112 -s 1 -d 2 -p tcp -e 1040 -c 1 -i 27 -a 1 -x {0.0 2.0 18 ------- null}
- -t 0.181416 -s 1 -d 2 -p tcp -e 1040 -c 1 -i 15 -a 1 -x {0.0 2.0 10 ------- null}
h -t 0.181416 -s 1 -d 2 -p tcp -e 1040 -c 1 -i 15 -a 1 -x {0.0 2.0 -1 ------- null}
r -t 0.182416 -s 1 -d 2 -p tcp -e 1040 -c 1 -i 14 -a 1 -x {0.0 2.0 9 ------- null}
+ -t 0.182416 -s 2 -d 1 -p ack -e 40 -c 1 -i 28 -a 1 -x {2.0 0.0 9 ------- null}
- -t 0.182416 -s 2 -d 1 -p ack -e 40 -c 1 -i 28 -a 1 -x {2.0 0.0 9 ------- null}
h -t 0.182416 -s 2 -d 1 -p ack -e 40 -c 1 -i 28 -a 1 -x {2.0 0.0 -1 ------- null}
r -t 0.183736 -s 2 -d 1 -p ack -e 40 -c 1 -i 28 -a 1 -x {2.0 0.0 9 ------- null}
+ -t 0.183736 -s 1 -d 0 -p ack -e 40 -c 1 -i 28 -a 1 -x {2.0 0.0 9 ------- null}
- -t 0.183736 -s 1 -d 0 -p ack -e 40 -c 1 -i 28 -a 1 -x {2.0 0.0 9 ------- null}
h -t 0.183736 -s 1 -d 0 -p ack -e 40 -c 1 -i 28 -a 1 -x {2.0 0.0 -1 ------- null}
r -t 0.184768 -s 1 -d 0 -p ack -e 40 -c 1 -i 28 -a 1 -x {2.0 0.0 9 ------- null}
+ -t 0.184768 -s 0 -d 1 -p tcp -e 1040 -c 1 -i 29 -a 1 -x {0.0 2.0 19 ------- null}
- -t 0.184768 -s 0 -d 1 -p tcp -e 1040 -c 1 -i 29 -a 1 -x {0.0 2.0 19 ------- null}
h -t 0.184768 -s 0 -d 1 -p tcp -e 1040 -c 1 -i 29 -a 1 -x {0.0 2.0 -1 ------- null}
+ -t 0.184768 -s 0 -d 1 -p tcp -e 1040 -c 1 -i 30 -a 1 -x {0.0 2.0 20 ------- null}
- -t 0.1856 -s 0 -d 1 -p tcp -e 1040 -c 1 -i 30 -a 1 -x {0.0 2.0 20 ------- null}
h -t 0.1856 -s 0 -d 1 -p tcp -e 1040 -c 1 -i 30 -a 1 -x {0.0 2.0 -1 ------- null}
r -t 0.1866 -s 0 -d 1 -p tcp -e 1040 -c 1 -i 29 -a 1 -x {0.0 2.0 19 ------- null}
+ -t 0.1866 -s 1 -d 2 -p tcp -e 1040 -c 1 -i 29 -a 1 -x {0.0 2.0 19 ------- null}
r -t 0.187432 -s 0 -d 1 -p tcp -e 1040 -c 1 -i 30 -a 1 -x {0.0 2.0 20 ------- null}
+ -t 0.187432 -s 1 -d 2 -p tcp -e 1040 -c 1 -i 30 -a 1 -x {0.0 2.0 20 ------- null}
d -t 0.187432 -s 1 -d 2 -p tcp -e 1040 -c 1 -i 30 -a 1 -x {0.0 2.0 20 ------- null}
- -t 0.189736 -s 1 -d 2 -p tcp -e 1040 -c 1 -i 17 -a 1 -x {0.0 2.0 11 ------- null}
h -t 0.189736 -s 1 -d 2 -p tcp -e 1040 -c 1 -i 17 -a 1 -x {0.0 2.0 -1 ------- null}
r -t 0.190736 -s 1 -d 2 -p tcp -e 1040 -c 1 -i 15 -a 1 -x {0.0 2.0 10 ------- null}
+ -t 0.190736 -s 2 -d 1 -p ack -e 40 -c 1 -i 31 -a 1 -x {2.0 0.0 10 ------- null}
- -t 0.190736 -s 2 -d 1 -p ack -e 40 -c 1 -i 31 -a 1 -x {2.0 0.0 10 ------- null}
h -t 0.190736 -s 2 -d 1 -p ack -e 40 -c 1 -i 31 -a 1 -x {2.0 0.0 -1 ------- null}
r -t 0.192056 -s 2 -d 1 -p ack -e 40 -c 1 -i 31 -a 1 -x {2.0 0.0 10 ------- null}
+ -t 0.192056 -s 1 -d 0 -p ack -e 40 -c 1 -i 31 -a 1 -x {2.0 0.0 10 ------- null}
- -t 0.192056 -s 1 -d 0 -p ack -e 40 -c 1 -i 31 -a 1 -x {2.0 0.0 10 ------- null}
h -t 0.192056 -s 1 -d 0 -p ack -e 40 -c 1 -i 31 -a 1 -x {2.0 0.0 -1 ------- null}
r -t 0.193088 -s 1 -d 0 -p ack -e 40 -c 1 -i 31 -a 1 -x {2.0 0.0 10 ------- null}
+ -t 0.193088 -s 0 -d 1 -p tcp -e 1040 -c 1 -i 32 -a 1 -x {0.0 2.0 21 ------- null}
- -t 0.193088 -s 0 -d 1 -p tcp -e 1040 -c 1 -i 32 -a 1 -x {0.0 2.0 21 ------- null}
h -t 0.193088 -s 0 -d 1 -p tcp -e 1040 -c 1 -i 32 -a 1 -x {0.0 2.0 -1 ------- null}
+ -t 0.193088 -s 0 -d 1 -p tcp -e 1040 -c 1 -i 33 -a 1 -x {0.0 2.0 22 ------- null}
- -t 0.19392 -s 0 -d 1 -p tcp -e 1040 -c 1 -i 33 -a 1 -x {0.0 2.0 22 ------- null}
h -t 0.19392 -s 0 -d 1 -p tcp -e 1040 -c 1 -i 33 -a 1 -x {0.0 2.0 -1 ------- null}
r -t 0.19492 -s 0 -d 1 -p tcp -e 1040 -c 1 -i 32 -a 1 -x {0.0 2.0 21 ------- null}
+ -t 0.19492 -s 1 -d 2 -p tcp -e 1040 -c 1 -i 32 -a 1 -x {0.0 2.0 21 ------- null}
r -t 0.195752 -s 0 -d 1 -p tcp -e 1040 -c 1 -i 33 -a 1 -x {0.0 2.0 22 ------- null}
+ -t 0.195752 -s 1 -d 2 -p tcp -e 1040 -c 1 -i 33 -a 1 -x {0.0 2.0 22 ------- null}
d -t 0.195752 -s 1 -d 2 -p tcp -e 1040 -c 1 -i 33 -a 1 -x {0.0 2.0 22 ------- null}
- -t 0.198056 -s 1 -d 2 -p tcp -e 1040 -c 1 -i 18 -a 1 -x {0.0 2.0 12 ------- null}
h -t 0.198056 -s 1 -d 2 -p tcp -e 1040 -c 1 -i 18 -a 1 -x {0.0 2.0 -1 ------- null}
r -t 0.199056 -s 1 -d 2 -p tcp -e 1040 -c 1 -i 17 -a 1 -x {0.0 2.0 11 ------- null}
+ -t 0.199056 -s 2 -d 1 -p ack -e 40 -c 1 -i 34 -a 1 -x {2.0 0.0 11 ------- null}
- -t 0.199056 -s 2 -d 1 -p ack -e 40 -c 1 -i 34 -a 1 -x {2.0 0.0 11 ------- null}
h -t 0.199056 -s 2 -d 1 -p ack -e 40 -c 1 -i 34 -a 1 -x {2.0 0.0 -1 ------- null}
r -t 0.200376 -s 2 -d 1 -p ack -e 40 -c 1 -i 34 -a 1 -x {2.0 0.0 11 ------- null}
+ -t 0.200376 -s 1 -d 0 -p ack -e 40 -c 1 -i 34 -a 1 -x {2.0 0.0 11 ------- null}
- -t 0.200376 -s 1 -d 0 -p ack -e 40 -c 1 -i 34 -a 1 -x {2.0 0.0 11 ------- null}
h -t 0.200376 -s 1 -d 0 -p ack -e 40 -c 1 -i 34 -a 1 -x {2.0 0.0 -1 ------- null}
r -t 0.201408 -s 1 -d 0 -p ack -e 40 -c 1 -i 34 -a 1 -x {2.0 0.0 11 ------- null}
+ -t 0.201408 -s 0 -d 1 -p tcp -e 1040 -c 1 -i 35 -a 1 -x {0.0 2.0 23 ------- null}
- -t 0.201408 -s 0 -d 1 -p tcp -e 1040 -c 1 -i 35 -a 1 -x {0.0 2.0 23 ------- null}
h -t 0.201408 -s 0 -d 1 -p tcp -e 1040 -c 1 -i 35 -a 1 -x {0.0 2.0 -1 ------- null}
+ -t 0.201408 -s 0 -d 1 -p tcp -e 1040 -c 1 -i 36 -a 1 -x {0.0 2.0 24 ------- null}
- -t 0.20224 -s 0 -d 1 -p tcp -e 1040 -c 1 -i 36 -a 1 -x {0.0 2.0 24 ------- null}
h -t 0.20224 -s 0 -d 1 -p tcp -e 1040 -c 1 -i 36 -a 1 -x {0.0 2.0 -1 ------- null}
r -t 0.20324 -s 0 -d 1 -p tcp -e 1040 -c 1 -i 35 -a 1 -x {0.0 2.0 23 ------- null}
+ -t 0.20324 -s 1 -d 2 -p tcp -e 1040 -c 1 -i 35 -a 1 -x {0.0 2.0 23 ------- null}
r -t 0.204072 -s 0 -d 1 -p tcp -e 1040 -c 1 -i 36 -a 1 -x {0.0 2.0 24 ------- null}
+ -t 0.204072 -s 1 -d 2 -p tcp -e 1040 -c 1 -i 36 -a 1 -x {0.0 2.0 24 ------- null}
d -t 0.204072 -s 1 -d 2 -p tcp -e 1040 -c 1 -i 36 -a 1 -x {0.0 2.0 24 ------- null}
- -t 0.206376 -s 1 -d 2 -p tcp -e 1040 -c 1 -i 20 -a 1 -x {0.0 2.0 13 ------- null}
h -t 0.206376 -s 1 -d 2 -p tcp -e 1040 -c 1 -i 20 -a 1 -x {0.0 2.0 -1 ------- null}
r -t 0.207376 -s 1 -d 2 -p tcp -e 1040 -c 1 -i 18 -a 1 -x {0.0 2.0 12 ------- null}
+ -t 0.207376 -s 2 -d 1 -p ack -e 40 -c 1 -i 37 -a 1 -x {2.0 0.0 12 ------- null}
- -t 0.207376 -s 2 -d 1 -p ack -e 40 -c 1 -i 37 -a 1 -x {2.0 0.0 12 ------- null}
h -t 0.207376 -s 2 -d 1 -p ack -e 40 -c 1 -i 37 -a 1 -x {2.0 0.0 -1 ------- null}
r -t 0.208696 -s 2 -d 1 -p ack -e 40 -c 1 -i 37 -a 1 -x {2.0 0.0 12 ------- null}
+ -t 0.208696 -s 1 -d 0 -p ack -e 40 -c 1 -i 37 -a 1 -x {2.0 0.0 12 ------- null}
- -t 0.208696 -s 1 -d 0 -p ack -e 40 -c 1 -i 37 -a 1 -x {2.0 0.0 12 ------- null}
h -t 0.208696 -s 1 -d 0 -p ack -e 40 -c 1 -i 37 -a 1 -x {2.0 0.0 -1 ------- null}
r -t 0.209728 -s 1 -d 0 -p ack -e 40 -c 1 -i 37 -a 1 -x {2.0 0.0 12 ------- null}
+ -t 0.209728 -s 0 -d 1 -p tcp -e 1040 -c 1 -i 38 -a 1 -x {0.0 2.0 25 ------- null}
- -t 0.209728 -s 0 -d 1 -p tcp -e 1040 -c 1 -i 38 -a 1 -x {0.0 2.0 25 ------- null}
h -t 0.209728 -s 0 -d 1 -p tcp -e 1040 -c 1 -i 38 -a 1 -x {0.0 2.0 -1 ------- null}
+ -t 0.209728 -s 0 -d 1 -p tcp -e 1040 -c 1 -i 39 -a 1 -x {0.0 2.0 26 ------- null}
- -t 0.21056 -s 0 -d 1 -p tcp -e 1040 -c 1 -i 39 -a 1 -x {0.0 2.0 26 ------- null}
h -t 0.21056 -s 0 -d 1 -p tcp -e 1040 -c 1 -i 39 -a 1 -x {0.0 2.0 -1 ------- null}
r -t 0.21156 -s 0 -d 1 -p tcp -e 1040 -c 1 -i 38 -a 1 -x {0.0 2.0 25 ------- null}
+ -t 0.21156 -s 1 -d 2 -p tcp -e 1040 -c 1 -i 38 -a 1 -x {0.0 2.0 25 ------- null}
r -t 0.212392 -s 0 -d 1 -p tcp -e 1040 -c 1 -i 39 -a 1 -x {0.0 2.0 26 ------- null}
+ -t 0.212392 -s 1 -d 2 -p tcp -e 1040 -c 1 -i 39 -a 1 -x {0.0 2.0 26 ------- null}
d -t 0.212392 -s 1 -d 2 -p tcp -e 1040 -c 1 -i 39 -a 1 -x {0.0 2.0 26 ------- null}
- -t 0.214696 -s 1 -d 2 -p tcp -e 1040 -c 1 -i 23 -a 1 -x {0.0 2.0 15 ------- null}
h -t 0.214696 -s 1 -d 2 -p tcp -e 1040 -c 1 -i 23 -a 1 -x {0.0 2.0 -1 ------- null}
r -t 0.215696 -s 1 -d 2 -p tcp -e 1040 -c 1 -i 20 -a 1 -x {0.0 2.0 13 ------- null}
+ -t 0.215696 -s 2 -d 1 -p ack -e 40 -c 1 -i 40 -a 1 -x {2.0 0.0 13 ------- null}
- -t 0.215696 -s 2 -d 1 -p ack -e 40 -c 1 -i 40 -a 1 -x {2.0 0.0 13 ------- null}
h -t 0.215696 -s 2 -d 1 -p ack -e 40 -c 1 -i 40 -a 1 -x {2.0 0.0 -1 ------- null}
r -t 0.217016 -s 2 -d 1 -p ack -e 40 -c 1 -i 40 -a 1 -x {2.0 0.0 13 ------- null}
+ -t 0.217016 -s 1 -d 0 -p ack -e 40 -c 1 -i 40 -a 1 -x {2.0 0.0 13 ------- null}
- -t 0.217016 -s 1 -d 0 -p ack -e 40 -c 1 -i 40 -a 1 -x {2.0 0.0 13 ------- null}
h -t 0.217016 -s 1 -d 0 -p ack -e 40 -c 1 -i 40 -a 1 -x {2.0 0.0 -1 ------- null}
r -t 0.218048 -s 1 -d 0 -p ack -e 40 -c 1 -i 40 -a 1 -x {2.0 0.0 13 ------- null}
+ -t 0.218048 -s 0 -d 1 -p tcp -e 1040 -c 1 -i 41 -a 1 -x {0.0 2.0 27 ------- null}
- -t 0.218048 -s 0 -d 1 -p tcp -e 1040 -c 1 -i 41 -a 1 -x {0.0 2.0 27 ------- null}
h -t 0.218048 -s 0 -d 1 -p tcp -e 1040 -c 1 -i 41 -a 1 -x {0.0 2.0 -1 ------- null}
+ -t 0.218048 -s 0 -d 1 -p tcp -e 1040 -c 1 -i 42 -a 1 -x {0.0 2.0 28 ------- null}
- -t 0.21888 -s 0 -d 1 -p tcp -e 1040 -c 1 -i 42 -a 1 -x {0.0 2.0 28 ------- null}
h -t 0.21888 -s 0 -d 1 -p tcp -e 1040 -c 1 -i 42 -a 1 -x {0.0 2.0 -1 ------- null}
r -t 0.21988 -s 0 -d 1 -p tcp -e 1040 -c 1 -i 41 -a 1 -x {0.0 2.0 27 ------- null}
+ -t 0.21988 -s 1 -d 2 -p tcp -e 1040 -c 1 -i 41 -a 1 -x {0.0 2.0 27 ------- null}
r -t 0.220712 -s 0 -d 1 -p tcp -e 1040 -c 1 -i 42 -a 1 -x {0.0 2.0 28 ------- null}
+ -t 0.220712 -s 1 -d 2 -p tcp -e 1040 -c 1 -i 42 -a 1 -x {0.0 2.0 28 ------- null}
d -t 0.220712 -s 1 -d 2 -p tcp -e 1040 -c 1 -i 42 -a 1 -x {0.0 2.0 28 ------- null}
- -t 0.223016 -s 1 -d 2 -p tcp -e 1040 -c 1 -i 26 -a 1 -x {0.0 2.0 17 ------- null}
h -t 0.223016 -s 1 -d 2 -p tcp -e 1040 -c 1 -i 26 -a 1 -x {0.0 2.0 -1 ------- null}
r -t 0.224016 -s 1 -d 2 -p tcp -e 1040 -c 1 -i 23 -a 1 -x {0.0 2.0 15 ------- null}
+ -t 0.224016 -s 2 -d 1 -p ack -e 40 -c 1 -i 43 -a 1 -x {2.0 0.0 13 ------- null}
- -t 0.224016 -s 2 -d 1 -p ack -e 40 -c 1 -i 43 -a 1 -x {2.0 0.0 13 ------- null}
h -t 0.224016 -s 2 -d 1 -p ack -e 40 -c 1 -i 43 -a 1 -x {2.0 0.0 -1 ------- null}
r -t 0.225336 -s 2 -d 1 -p ack -e 40 -c 1 -i 43 -a 1 -x {2.0 0.0 13 ------- null}
+ -t 0.225336 -s 1 -d 0 -p ack -e 40 -c 1 -i 43 -a 1 -x {2.0 0.0 13 ------- null}
- -t 0.225336 -s 1 -d 0 -p ack -e 40 -c 1 -i 43 -a 1 -x {2.0 0.0 13 ------- null}
h -t 0.225336 -s 1 -d 0 -p ack -e 40 -c 1 -i 43 -a 1 -x {2.0 0.0 -1 ------- null}
r -t 0.226368 -s 1 -d 0 -p ack -e 40 -c 1 -i 43 -a 1 -x {2.0 0.0 13 ------- null}
+ -t 0.226368 -s 0 -d 1 -p tcp -e 1040 -c 1 -i 44 -a 1 -x {0.0 2.0 29 ------- null}
- -t 0.226368 -s 0 -d 1 -p tcp -e 1040 -c 1 -i 44 -a 1 -x {0.0 2.0 29 ------- null}
h -t 0.226368 -s 0 -d 1 -p tcp -e 1040 -c 1 -i 44 -a 1 -x {0.0 2.0 -1 ------- null}
r -t 0.2282 -s 0 -d 1 -p tcp -e 1040 -c 1 -i 44 -a 1 -x {0.0 2.0 29 ------- null}
+ -t 0.2282 -s 1 -d 2 -p tcp -e 1040 -c 1 -i 44 -a 1 -x {0.0 2.0 29 ------- null}
- -t 0.231336 -s 1 -d 2 -p tcp -e 1040 -c 1 -i 29 -a 1 -x {0.0 2.0 19 ------- null}
h -t 0.231336 -s 1 -d 2 -p tcp -e 1040 -c 1 -i 29 -a 1 -x {0.0 2.0 -1 ------- null}
r -t 0.232336 -s 1 -d 2 -p tcp -e 1040 -c 1 -i 26 -a 1 -x {0.0 2.0 17 ------- null}
+ -t 0.232336 -s 2 -d 1 -p ack -e 40 -c 1 -i 45 -a 1 -x {2.0 0.0 13 ------- null}
- -t 0.232336 -s 2 -d 1 -p ack -e 40 -c 1 -i 45 -a 1 -x {2.0 0.0 13 ------- null}
h -t 0.232336 -s 2 -d 1 -p ack -e 40 -c 1 -i 45 -a 1 -x {2.0 0.0 -1 ------- null}
r -t 0.233656 -s 2 -d 1 -p ack -e 40 -c 1 -i 45 -a 1 -x {2.0 0.0 13 ------- null}
+ -t 0.233656 -s 1 -d 0 -p ack -e 40 -c 1 -i 45 -a 1 -x {2.0 0.0 13 ------- null}
- -t 0.233656 -s 1 -d 0 -p ack -e 40 -c 1 -i 45 -a 1 -x {2.0 0.0 13 ------- null}
h -t 0.233656 -s 1 -d 0 -p ack -e 40 -c 1 -i 45 -a 1 -x {2.0 0.0 -1 ------- null}
r -t 0.234688 -s 1 -d 0 -p ack -e 40 -c 1 -i 45 -a 1 -x {2.0 0.0 13 ------- null}
+ -t 0.234688 -s 0 -d 1 -p tcp -e 1040 -c 1 -i 46 -a 1 -x {0.0 2.0 30 ------- null}
- -t 0.234688 -s 0 -d 1 -p tcp -e 1040 -c 1 -i 46 -a 1 -x {0.0 2.0 30 ------- null}
h -t 0.234688 -s 0 -d 1 -p tcp -e 1040 -c 1 -i 46 -a 1 -x {0.0 2.0 -1 ------- null}
r -t 0.23652 -s 0 -d 1 -p tcp -e 1040 -c 1 -i 46 -a 1 -x {0.0 2.0 30 ------- null}
+ -t 0.23652 -s 1 -d 2 -p tcp -e 1040 -c 1 -i 46 -a 1 -x {0.0 2.0 30 ------- null}
- -t 0.239656 -s 1 -d 2 -p tcp -e 1040 -c 1 -i 32 -a 1 -x {0.0 2.0 21 ------- null}
h -t 0.239656 -s 1 -d 2 -p tcp -e 1040 -c 1 -i 32 -a 1 -x {0.0 2.0 -1 ------- null}
r -t 0.240656 -s 1 -d 2 -p tcp -e 1040 -c 1 -i 29 -a 1 -x {0.0 2.0 19 ------- null}
+ -t 0.240656 -s 2 -d 1 -p ack -e 40 -c 1 -i 47 -a 1 -x {2.0 0.0 13 ------- null}
- -t 0.240656 -s 2 -d 1 -p ack -e 40 -c 1 -i 47 -a 1 -x {2.0 0.0 13 ------- null}
h -t 0.240656 -s 2 -d 1 -p ack -e 40 -c 1 -i 47 -a 1 -x {2.0 0.0 -1 ------- null}
r -t 0.241976 -s 2 -d 1 -p ack -e 40 -c 1 -i 47 -a 1 -x {2.0 0.0 13 ------- null}
+ -t 0.241976 -s 1 -d 0 -p ack -e 40 -c 1 -i 47 -a 1 -x {2.0 0.0 13 ------- null}
- -t 0.241976 -s 1 -d 0 -p ack -e 40 -c 1 -i 47 -a 1 -x {2.0 0.0 13 ------- null}
h -t 0.241976 -s 1 -d 0 -p ack -e 40 -c 1 -i 47 -a 1 -x {2.0 0.0 -1 ------- null}
r -t 0.243008 -s 1 -d 0 -p ack -e 40 -c 1 -i 47 -a 1 -x {2.0 0.0 13 ------- null}
+ -t 0.243008 -s 0 -d 1 -p tcp -e 1040 -c 1 -i 48 -a 1 -x {0.0 2.0 14 ---A--- null}
- -t 0.243008 -s 0 -d 1 -p tcp -e 1040 -c 1 -i 48 -a 1 -x {0.0 2.0 14 ---A--- null}
h -t 0.243008 -s 0 -d 1 -p tcp -e 1040 -c 1 -i 48 -a 1 -x {0.0 2.0 -1 ---A--- null}
r -t 0.24484 -s 0 -d 1 -p tcp -e 1040 -c 1 -i 48 -a 1 -x {0.0 2.0 14 ---A--- null}
+ -t 0.24484 -s 1 -d 2 -p tcp -e 1040 -c 1 -i 48 -a 1 -x {0.0 2.0 14 ---A--- null}
- -t 0.247976 -s 1 -d 2 -p tcp -e 1040 -c 1 -i 35 -a 1 -x {0.0 2.0 23 ------- null}
h -t 0.247976 -s 1 -d 2 -p tcp -e 1040 -c 1 -i 35 -a 1 -x {0.0 2.0 -1 ------- null}