V -t * -v 1.0a5 -a 0
A -t * -n 1 -p 0 -o 0x7fffffff -c 30 -a 1
A -t * -h 1 -m 1073741823 -s 0
c -t * -i 8 -n Blue
c -t * -i 4 -n dodgerblue
c -t * -i 0 -n Blue
c -t * -i 5 -n darkgreen
c -t * -i 1 -n Yellow
c -t * -i 6 -n Orange
c -t * -i 2 -n darkviolet
c -t * -i 7 -n Blue
c -t * -i 3 -n Yellow
n -t * -a 8 -s 8 -S UP -v circle -c black -i black
n -t * -a 4 -s 4 -S UP -v circle -c black -i black
n -t * -a 0 -s 0 -S UP -v circle -c black -i black
n -t * -a 5 -s 5 -S UP -v circle -c black -i black
n -t * -a 1 -s 1 -S UP -v circle -c black -i black
n -t * -a 6 -s 6 -S UP -v circle -c black -i black
n -t * -a 2 -s 2 -S UP -v circle -c black -i black
n -t * -a 7 -s 7 -S UP -v circle -c black -i black
n -t * -a 3 -s 3 -S UP -v circle -c black -i black
l -t * -s 0 -d 1 -S UP -r 512000 -D 0.0050000000000000001 -c black
l -t * -s 1 -d 2 -S UP -r 512000 -D 0.0050000000000000001 -c black
l -t * -s 2 -d 3 -S UP -r 512000 -D 0.0050000000000000001 -c black
l -t * -s 3 -d 4 -S UP -r 512000 -D 0.0050000000000000001 -c black
l -t * -s 4 -d 5 -S UP -r 512000 -D 0.0050000000000000001 -c black
l -t * -s 5 -d 6 -S UP -r 512000 -D 0.0050000000000000001 -c black
l -t * -s 6 -d 7 -S UP -r 512000 -D 0.0050000000000000001 -c black
l -t * -s 7 -d 8 -S UP -r 512000 -D 0.0050000000000000001 -c black
l -t * -s 8 -d 0 -S UP -r 512000 -D 0.0050000000000000001 -c black
+ -t 0.000169788487334637 -s 0 -d 1 -p rtProtoDV -e 9 -c 0 -i 0 -a 0 -x {0.3 1.3 -1 ------- null}
- -t 0.000169788487334637 -s 0 -d 1 -p rtProtoDV -e 9 -c 0 -i 0 -a 0 -x {0.3 1.3 -1 ------- null}
h -t 0.000169788487334637 -s 0 -d 1 -p rtProtoDV -e 9 -c 0 -i 0 -a 0 -x {0.3 1.3 -1 ------- null}
+ -t 0.000169788487334637 -s 0 -d 8 -p rtProtoDV -e 9 -c 0 -i 1 -a 0 -x {0.3 8.1 -1 ------- null}
- -t 0.000169788487334637 -s 0 -d 8 -p rtProtoDV -e 9 -c 0 -i 1 -a 0 -x {0.3 8.1 -1 ------- null}
h -t 0.000169788487334637 -s 0 -d 8 -p rtProtoDV -e 9 -c 0 -i 1 -a 0 -x {0.3 8.1 -1 ------- null}
r -t 0.00531041348733464 -s 0 -d 1 -p rtProtoDV -e 9 -c 0 -i 0 -a 0 -x {0.3 1.3 -1 ------- null}
+ -t 0.00531041348733464 -s 1 -d 0 -p rtProtoDV -e 9 -c 0 -i 2 -a 0 -x {1.3 0.3 -1 ------- null}
- -t 0.00531041348733464 -s 1 -d 0 -p rtProtoDV -e 9 -c 0 -i 2 -a 0 -x {1.3 0.3 -1 ------- null}
h -t 0.00531041348733464 -s 1 -d 0 -p rtProtoDV -e 9 -c 0 -i 2 -a 0 -x {1.3 0.3 -1 ------- null}
+ -t 0.00531041348733464 -s 1 -d 2 -p rtProtoDV -e 9 -c 0 -i 3 -a 0 -x {1.3 2.1 -1 ------- null}
- -t 0.00531041348733464 -s 1 -d 2 -p rtProtoDV -e 9 -c 0 -i 3 -a 0 -x {1.3 2.1 -1 ------- null}
h -t 0.00531041348733464 -s 1 -d 2 -p rtProtoDV -e 9 -c 0 -i 3 -a 0 -x {1.3 2.1 -1 ------- null}
r -t 0.00531041348733464 -s 0 -d 8 -p rtProtoDV -e 9 -c 0 -i 1 -a 0 -x {0.3 8.1 -1 ------- null}
+ -t 0.00531041348733464 -s 8 -d 0 -p rtProtoDV -e 9 -c 0 -i 4 -a 0 -x {8.1 0.3 -1 ------- null}
- -t 0.00531041348733464 -s 8 -d 0 -p rtProtoDV -e 9 -c 0 -i 4 -a 0 -x {8.1 0.3 -1 ------- null}
h -t 0.00531041348733464 -s 8 -d 0 -p rtProtoDV -e 9 -c 0 -i 4 -a 0 -x {8.1 0.3 -1 ------- null}
+ -t 0.00531041348733464 -s 8 -d 7 -p rtProtoDV -e 9 -c 0 -i 5 -a 0 -x {8.1 7.1 -1 ------- null}
- -t 0.00531041348733464 -s 8 -d 7 -p rtProtoDV -e 9 -c 0 -i 5 -a 0 -x {8.1 7.1 -1 ------- null}
h -t 0.00531041348733464 -s 8 -d 7 -p rtProtoDV -e 9 -c 0 -i 5 -a 0 -x {8.1 7.1 -1 ------- null}
+ -t 0.00710233021858257 -s 2 -d 1 -p rtProtoDV -e 9 -c 0 -i 6 -a 0 -x {2.1 1.3 -1 ------- null}
- -t 0.00710233021858257 -s 2 -d 1 -p rtProtoDV -e 9 -c 0 -i 6 -a 0 -x {2.1 1.3 -1 ------- null}
h -t 0.00710233021858257 -s 2 -d 1 -p rtProtoDV -e 9 -c 0 -i 6 -a 0 -x {2.1 1.3 -1 ------- null}
+ -t 0.00710233021858257 -s 2 -d 3 -p rtProtoDV -e 9 -c 0 -i 7 -a 0 -x {2.1 3.3 -1 ------- null}
- -t 0.00710233021858257 -s 2 -d 3 -p rtProtoDV -e 9 -c 0 -i 7 -a 0 -x {2.1 3.3 -1 ------- null}
h -t 0.00710233021858257 -s 2 -d 3 -p rtProtoDV -e 9 -c 0 -i 7 -a 0 -x {2.1 3.3 -1 ------- null}
r -t 0.0104510384873346 -s 1 -d 0 -p rtProtoDV -e 9 -c 0 -i 2 -a 0 -x {1.3 0.3 -1 ------- null}
+ -t 0.0104510384873346 -s 0 -d 1 -p rtProtoDV -e 9 -c 0 -i 8 -a 0 -x {0.3 1.3 -1 ------- null}
- -t 0.0104510384873346 -s 0 -d 1 -p rtProtoDV -e 9 -c 0 -i 8 -a 0 -x {0.3 1.3 -1 ------- null}
h -t 0.0104510384873346 -s 0 -d 1 -p rtProtoDV -e 9 -c 0 -i 8 -a 0 -x {0.3 1.3 -1 ------- null}
+ -t 0.0104510384873346 -s 0 -d 8 -p rtProtoDV -e 9 -c 0 -i 9 -a 0 -x {0.3 8.1 -1 ------- null}
- -t 0.0104510384873346 -s 0 -d 8 -p rtProtoDV -e 9 -c 0 -i 9 -a 0 -x {0.3 8.1 -1 ------- null}
h -t 0.0104510384873346 -s 0 -d 8 -p rtProtoDV -e 9 -c 0 -i 9 -a 0 -x {0.3 8.1 -1 ------- null}
r -t 0.0104510384873346 -s 1 -d 2 -p rtProtoDV -e 9 -c 0 -i 3 -a 0 -x {1.3 2.1 -1 ------- null}
+ -t 0.0104510384873346 -s 2 -d 1 -p rtProtoDV -e 9 -c 0 -i 10 -a 0 -x {2.1 1.3 -1 ------- null}
- -t 0.0104510384873346 -s 2 -d 1 -p rtProtoDV -e 9 -c 0 -i 10 -a 0 -x {2.1 1.3 -1 ------- null}
h -t 0.0104510384873346 -s 2 -d 1 -p rtProtoDV -e 9 -c 0 -i 10 -a 0 -x {2.1 1.3 -1 ------- null}
+ -t 0.0104510384873346 -s 2 -d 3 -p rtProtoDV -e 9 -c 0 -i 11 -a 0 -x {2.1 3.3 -1 ------- null}
- -t 0.0104510384873346 -s 2 -d 3 -p rtProtoDV -e 9 -c 0 -i 11 -a 0 -x {2.1 3.3 -1 ------- null}
h -t 0.0104510384873346 -s 2 -d 3 -p rtProtoDV -e 9 -c 0 -i 11 -a 0 -x {2.1 3.3 -1 ------- null}
r -t 0.0104510384873346 -s 8 -d 0 -p rtProtoDV -e 9 -c 0 -i 4 -a 0 -x {8.1 0.3 -1 ------- null}
+ -t 0.0104510384873346 -s 0 -d 1 -p rtProtoDV -e 9 -c 0 -i 12 -a 0 -x {0.3 1.3 -1 ------- null}
+ -t 0.0104510384873346 -s 0 -d 8 -p rtProtoDV -e 9 -c 0 -i 13 -a 0 -x {0.3 8.1 -1 ------- null}
r -t 0.0104510384873346 -s 8 -d 7 -p rtProtoDV -e 9 -c 0 -i 5 -a 0 -x {8.1 7.1 -1 ------- null}
+ -t 0.0104510384873346 -s 7 -d 6 -p rtProtoDV -e 9 -c 0 -i 14 -a 0 -x {7.1 6.1 -1 ------- null}
- -t 0.0104510384873346 -s 7 -d 6 -p rtProtoDV -e 9 -c 0 -i 14 -a 0 -x {7.1 6.1 -1 ------- null}
h -t 0.0104510384873346 -s 7 -d 6 -p rtProtoDV -e 9 -c 0 -i 14 -a 0 -x {7.1 6.1 -1 ------- null}
+ -t 0.0104510384873346 -s 7 -d 8 -p rtProtoDV -e 9 -c 0 -i 15 -a 0 -x {7.1 8.1 -1 ------- null}
- -t 0.0104510384873346 -s 7 -d 8 -p rtProtoDV -e 9 -c 0 -i 15 -a 0 -x {7.1 8.1 -1 ------- null}
h -t 0.0104510384873346 -s 7 -d 8 -p rtProtoDV -e 9 -c 0 -i 15 -a 0 -x {7.1 8.1 -1 ------- null}
- -t 0.0105916634873346 -s 0 -d 1 -p rtProtoDV -e 9 -c 0 -i 12 -a 0 -x {0.3 1.3 -1 ------- null}
h -t 0.0105916634873346 -s 0 -d 1 -p rtProtoDV -e 9 -c 0 -i 12 -a 0 -x {0.3 1.3 -1 ------- null}
- -t 0.0105916634873346 -s 0 -d 8 -p rtProtoDV -e 9 -c 0 -i 13 -a 0 -x {0.3 8.1 -1 ------- null}
h -t 0.0105916634873346 -s 0 -d 8 -p rtProtoDV -e 9 -c 0 -i 13 -a 0 -x {0.3 8.1 -1 ------- null}
r -t 0.0122429552185826 -s 2 -d 1 -p rtProtoDV -e 9 -c 0 -i 6 -a 0 -x {2.1 1.3 -1 ------- null}
+ -t 0.0122429552185826 -s 1 -d 0 -p rtProtoDV -e 9 -c 0 -i 16 -a 0 -x {1.3 0.3 -1 ------- null}
- -t 0.0122429552185826 -s 1 -d 0 -p rtProtoDV -e 9 -c 0 -i 16 -a 0 -x {1.3 0.3 -1 ------- null}
h -t 0.0122429552185826 -s 1 -d 0 -p rtProtoDV -e 9 -c 0 -i 16 -a 0 -x {1.3 0.3 -1 ------- null}
+ -t 0.0122429552185826 -s 1 -d 2 -p rtProtoDV -e 9 -c 0 -i 17 -a 0 -x {1.3 2.1 -1 ------- null}
- -t 0.0122429552185826 -s 1 -d 2 -p rtProtoDV -e 9 -c 0 -i 17 -a 0 -x {1.3 2.1 -1 ------- null}
h -t 0.0122429552185826 -s 1 -d 2 -p rtProtoDV -e 9 -c 0 -i 17 -a 0 -x {1.3 2.1 -1 ------- null}
r -t 0.0122429552185826 -s 2 -d 3 -p rtProtoDV -e 9 -c 0 -i 7 -a 0 -x {2.1 3.3 -1 ------- null}
+ -t 0.0122429552185826 -s 3 -d 2 -p rtProtoDV -e 9 -c 0 -i 18 -a 0 -x {3.3 2.1 -1 ------- null}
- -t 0.0122429552185826 -s 3 -d 2 -p rtProtoDV -e 9 -c 0 -i 18 -a 0 -x {3.3 2.1 -1 ------- null}
h -t 0.0122429552185826 -s 3 -d 2 -p rtProtoDV -e 9 -c 0 -i 18 -a 0 -x {3.3 2.1 -1 ------- null}
+ -t 0.0122429552185826 -s 3 -d 4 -p rtProtoDV -e 9 -c 0 -i 19 -a 0 -x {3.3 4.3 -1 ------- null}
- -t 0.0122429552185826 -s 3 -d 4 -p rtProtoDV -e 9 -c 0 -i 19 -a 0 -x {3.3 4.3 -1 ------- null}
h -t 0.0122429552185826 -s 3 -d 4 -p rtProtoDV -e 9 -c 0 -i 19 -a 0 -x {3.3 4.3 -1 ------- null}
r -t 0.0155916634873346 -s 0 -d 1 -p rtProtoDV -e 9 -c 0 -i 8 -a 0 -x {0.3 1.3 -1 ------- null}
r -t 0.0155916634873346 -s 0 -d 8 -p rtProtoDV -e 9 -c 0 -i 9 -a 0 -x {0.3 8.1 -1 ------- null}
+ -t 0.0155916634873346 -s 8 -d 0 -p rtProtoDV -e 9 -c 0 -i 20 -a 0 -x {8.1 0.3 -1 ------- null}
- -t 0.0155916634873346 -s 8 -d 0 -p rtProtoDV -e 9 -c 0 -i 20 -a 0 -x {8.1 0.3 -1 ------- null}
h -t 0.0155916634873346 -s 8 -d 0 -p rtProtoDV -e 9 -c 0 -i 20 -a 0 -x {8.1 0.3 -1 ------- null}
+ -t 0.0155916634873346 -s 8 -d 7 -p rtProtoDV -e 9 -c 0 -i 21 -a 0 -x {8.1 7.1 -1 ------- null}
- -t 0.0155916634873346 -s 8 -d 7 -p rtProtoDV -e 9 -c 0 -i 21 -a 0 -x {8.1 7.1 -1 ------- null}
h -t 0.0155916634873346 -s 8 -d 7 -p rtProtoDV -e 9 -c 0 -i 21 -a 0 -x {8.1 7.1 -1 ------- null}
r -t 0.0155916634873346 -s 2 -d 1 -p rtProtoDV -e 9 -c 0 -i 10 -a 0 -x {2.1 1.3 -1 ------- null}
r -t 0.0155916634873346 -s 2 -d 3 -p rtProtoDV -e 9 -c 0 -i 11 -a 0 -x {2.1 3.3 -1 ------- null}
+ -t 0.0155916634873346 -s 3 -d 2 -p rtProtoDV -e 9 -c 0 -i 22 -a 0 -x {3.3 2.1 -1 ------- null}
- -t 0.0155916634873346 -s 3 -d 2 -p rtProtoDV -e 9 -c 0 -i 22 -a 0 -x {3.3 2.1 -1 ------- null}
h -t 0.0155916634873346 -s 3 -d 2 -p rtProtoDV -e 9 -c 0 -i 22 -a 0 -x {3.3 2.1 -1 ------- null}
+ -t 0.0155916634873346 -s 3 -d 4 -p rtProtoDV -e 9 -c 0 -i 23 -a 0 -x {3.3 4.3 -1 ------- null}
- -t 0.0155916634873346 -s 3 -d 4 -p rtProtoDV -e 9 -c 0 -i 23 -a 0 -x {3.3 4.3 -1 ------- null}
h -t 0.0155916634873346 -s 3 -d 4 -p rtProtoDV -e 9 -c 0 -i 23 -a 0 -x {3.3 4.3 -1 ------- null}
r -t 0.0155916634873346 -s 7 -d 6 -p rtProtoDV -e 9 -c 0 -i 14 -a 0 -x {7.1 6.1 -1 ------- null}
+ -t 0.0155916634873346 -s 6 -d 5 -p rtProtoDV -e 9 -c 0 -i 24 -a 0 -x {6.1 5.1 -1 ------- null}
- -t 0.0155916634873346 -s 6 -d 5 -p rtProtoDV -e 9 -c 0 -i 24 -a 0 -x {6.1 5.1 -1 ------- null}
h -t 0.0155916634873346 -s 6 -d 5 -p rtProtoDV -e 9 -c 0 -i 24 -a 0 -x {6.1 5.1 -1 ------- null}
+ -t 0.0155916634873346 -s 6 -d 7 -p rtProtoDV -e 9 -c 0 -i 25 -a 0 -x {6.1 7.1 -1 ------- null}
- -t 0.0155916634873346 -s 6 -d 7 -p rtProtoDV -e 9 -c 0 -i 25 -a 0 -x {6.1 7.1 -1 ------- null}
h -t 0.0155916634873346 -s 6 -d 7 -p rtProtoDV -e 9 -c 0 -i 25 -a 0 -x {6.1 7.1 -1 ------- null}
r -t 0.0155916634873346 -s 7 -d 8 -p rtProtoDV -e 9 -c 0 -i 15 -a 0 -x {7.1 8.1 -1 ------- null}
+ -t 0.0155916634873346 -s 8 -d 0 -p rtProtoDV -e 9 -c 0 -i 26 -a 0 -x {8.1 0.3 -1 ------- null}
+ -t 0.0155916634873346 -s 8 -d 7 -p rtProtoDV -e 9 -c 0 -i 27 -a 0 -x {8.1 7.1 -1 ------- null}
- -t 0.0157322884873346 -s 8 -d 0 -p rtProtoDV -e 9 -c 0 -i 26 -a 0 -x {8.1 0.3 -1 ------- null}
h -t 0.0157322884873346 -s 8 -d 0 -p rtProtoDV -e 9 -c 0 -i 26 -a 0 -x {8.1 0.3 -1 ------- null}
- -t 0.0157322884873346 -s 8 -d 7 -p rtProtoDV -e 9 -c 0 -i 27 -a 0 -x {8.1 7.1 -1 ------- null}
h -t 0.0157322884873346 -s 8 -d 7 -p rtProtoDV -e 9 -c 0 -i 27 -a 0 -x {8.1 7.1 -1 ------- null}
r -t 0.0157322884873346 -s 0 -d 1 -p rtProtoDV -e 9 -c 0 -i 12 -a 0 -x {0.3 1.3 -1 ------- null}
+ -t 0.0157322884873346 -s 1 -d 0 -p rtProtoDV -e 9 -c 0 -i 28 -a 0 -x {1.3 0.3 -1 ------- null}
- -t 0.0157322884873346 -s 1 -d 0 -p rtProtoDV -e 9 -c 0 -i 28 -a 0 -x {1.3 0.3 -1 ------- null}
h -t 0.0157322884873346 -s 1 -d 0 -p rtProtoDV -e 9 -c 0 -i 28 -a 0 -x {1.3 0.3 -1 ------- null}
+ -t 0.0157322884873346 -s 1 -d 2 -p rtProtoDV -e 9 -c 0 -i 29 -a 0 -x {1.3 2.1 -1 ------- null}
- -t 0.0157322884873346 -s 1 -d 2 -p rtProtoDV -e 9 -c 0 -i 29 -a 0 -x {1.3 2.1 -1 ------- null}
h -t 0.0157322884873346 -s 1 -d 2 -p rtProtoDV -e 9 -c 0 -i 29 -a 0 -x {1.3 2.1 -1 ------- null}
r -t 0.0157322884873346 -s 0 -d 8 -p rtProtoDV -e 9 -c 0 -i 13 -a 0 -x {0.3 8.1 -1 ------- null}
r -t 0.0173835802185826 -s 1 -d 0 -p rtProtoDV -e 9 -c 0 -i 16 -a 0 -x {1.3 0.3 -1 ------- null}
+ -t 0.0173835802185826 -s 0 -d 1 -p rtProtoDV -e 9 -c 0 -i 30 -a 0 -x {0.3 1.3 -1 ------- null}
- -t 0.0173835802185826 -s 0 -d 1 -p rtProtoDV -e 9 -c 0 -i 30 -a 0 -x {0.3 1.3 -1 ------- null}
h -t 0.0173835802185826 -s 0 -d 1 -p rtProtoDV -e 9 -c 0 -i 30 -a 0 -x {0.3 1.3 -1 ------- null}
+ -t 0.0173835802185826 -s 0 -d 8 -p rtProtoDV -e 9 -c 0 -i 31 -a 0 -x {0.3 8.1 -1 ------- null}
- -t 0.0173835802185826 -s 0 -d 8 -p rtProtoDV -e 9 -c 0 -i 31 -a 0 -x {0.3 8.1 -1 ------- null}
h -t 0.0173835802185826 -s 0 -d 8 -p rtProtoDV -e 9 -c 0 -i 31 -a 0 -x {0.3 8.1 -1 ------- null}
r -t 0.0173835802185826 -s 1 -d 2 -p rtProtoDV -e 9 -c 0 -i 17 -a 0 -x {1.3 2.1 -1 ------- null}
r -t 0.0173835802185826 -s 3 -d 2 -p rtProtoDV -e 9 -c 0 -i 18 -a 0 -x {3.3 2.1 -1 ------- null}
+ -t 0.0173835802185826 -s 2 -d 1 -p rtProtoDV -e 9 -c 0 -i 32 -a 0 -x {2.1 1.3 -1 ------- null}
- -t 0.0173835802185826 -s 2 -d 1 -p rtProtoDV -e 9 -c 0 -i 32 -a 0 -x {2.1 1.3 -1 ------- null}
h -t 0.0173835802185826 -s 2 -d 1 -p rtProtoDV -e 9 -c 0 -i 32 -a 0 -x {2.1 1.3 -1 ------- null}
+ -t 0.0173835802185826 -s 2 -d 3 -p rtProtoDV -e 9 -c 0 -i 33 -a 0 -x {2.1 3.3 -1 ------- null}
- -t 0.0173835802185826 -s 2 -d 3 -p rtProtoDV -e 9 -c 0 -i 33 -a 0 -x {2.1 3.3 -1 ------- null}
h -t 0.0173835802185826 -s 2 -d 3 -p rtProtoDV -e 9 -c 0 -i 33 -a 0 -x {2.1 3.3 -1 ------- null}
r -t 0.0173835802185826 -s 3 -d 4 -p rtProtoDV -e 9 -c 0 -i 19 -a 0 -x {3.3 4.3 -1 ------- null}
+ -t 0.0173835802185826 -s 4 -d 3 -p rtProtoDV -e 9 -c 0 -i 34 -a 0 -x {4.3 3.3 -1 ------- null}
- -t 0.0173835802185826 -s 4 -d 3 -p rtProtoDV -e 9 -c 0 -i 34 -a 0 -x {4.3 3.3 -1 ------- null}
h -t 0.0173835802185826 -s 4 -d 3 -p rtProtoDV -e 9 -c 0 -i 34 -a 0 -x {4.3 3.3 -1 ------- null}
+ -t 0.0173835802185826 -s 4 -d 5 -p rtProtoDV -e 9 -c 0 -i 35 -a 0 -x {4.3 5.1 -1 ------- null}
- -t 0.0173835802185826 -s 4 -d 5 -p rtProtoDV -e 9 -c 0 -i 35 -a 0 -x {4.3 5.1 -1 ------- null}
h -t 0.0173835802185826 -s 4 -d 5 -p rtProtoDV -e 9 -c 0 -i 35 -a 0 -x {4.3 5.1 -1 ------- null}
r -t 0.0207322884873346 -s 8 -d 0 -p rtProtoDV -e 9 -c 0 -i 20 -a 0 -x {8.1 0.3 -1 ------- null}
r -t 0.0207322884873346 -s 8 -d 7 -p rtProtoDV -e 9 -c 0 -i 21 -a 0 -x {8.1 7.1 -1 ------- null}
+ -t 0.0207322884873346 -s 7 -d 6 -p rtProtoDV -e 9 -c 0 -i 36 -a 0 -x {7.1 6.1 -1 ------- null}
- -t 0.0207322884873346 -s 7 -d 6 -p rtProtoDV -e 9 -c 0 -i 36 -a 0 -x {7.1 6.1 -1 ------- null}
h -t 0.0207322884873346 -s 7 -d 6 -p rtProtoDV -e 9 -c 0 -i 36 -a 0 -x {7.1 6.1 -1 ------- null}
+ -t 0.0207322884873346 -s 7 -d 8 -p rtProtoDV -e 9 -c 0 -i 37 -a 0 -x {7.1 8.1 -1 ------- null}
- -t 0.0207322884873346 -s 7 -d 8 -p rtProtoDV -e 9 -c 0 -i 37 -a 0 -x {7.1 8.1 -1 ------- null}
h -t 0.0207322884873346 -s 7 -d 8 -p rtProtoDV -e 9 -c 0 -i 37 -a 0 -x {7.1 8.1 -1 ------- null}
r -t 0.0207322884873346 -s 3 -d 2 -p rtProtoDV -e 9 -c 0 -i 22 -a 0 -x {3.3 2.1 -1 ------- null}
r -t 0.0207322884873346 -s 3 -d 4 -p rtProtoDV -e 9 -c 0 -i 23 -a 0 -x {3.3 4.3 -1 ------- null}
+ -t 0.0207322884873346 -s 4 -d 3 -p rtProtoDV -e 9 -c 0 -i 38 -a 0 -x {4.3 3.3 -1 ------- null}
- -t 0.0207322884873346 -s 4 -d 3 -p rtProtoDV -e 9 -c 0 -i 38 -a 0 -x {4.3 3.3 -1 ------- null}
h -t 0.0207322884873346 -s 4 -d 3 -p rtProtoDV -e 9 -c 0 -i 38 -a 0 -x {4.3 3.3 -1 ------- null}
+ -t 0.0207322884873346 -s 4 -d 5 -p rtProtoDV -e 9 -c 0 -i 39 -a 0 -x {4.3 5.1 -1 ------- null}
- -t 0.0207322884873346 -s 4 -d 5 -p rtProtoDV -e 9 -c 0 -i 39 -a 0 -x {4.3 5.1 -1 ------- null}
h -t 0.0207322884873346 -s 4 -d 5 -p rtProtoDV -e 9 -c 0 -i 39 -a 0 -x {4.3 5.1 -1 ------- null}
r -t 0.0207322884873346 -s 6 -d 5 -p rtProtoDV -e 9 -c 0 -i 24 -a 0 -x {6.1 5.1 -1 ------- null}
+ -t 0.0207322884873346 -s 5 -d 4 -p rtProtoDV -e 9 -c 0 -i 40 -a 0 -x {5.1 4.3 -1 ------- null}
- -t 0.0207322884873346 -s 5 -d 4 -p rtProtoDV -e 9 -c 0 -i 40 -a 0 -x {5.1 4.3 -1 ------- null}
h -t 0.0207322884873346 -s 5 -d 4 -p rtProtoDV -e 9 -c 0 -i 40 -a 0 -x {5.1 4.3 -1 ------- null}
+ -t 0.0207322884873346 -s 5 -d 6 -p rtProtoDV -e 9 -c 0 -i 41 -a 0 -x {5.1 6.1 -1 ------- null}
- -t 0.0207322884873346 -s 5 -d 6 -p rtProtoDV -e 9 -c 0 -i 41 -a 0 -x {5.1 6.1 -1 ------- null}
h -t 0.0207322884873346 -s 5 -d 6 -p rtProtoDV -e 9 -c 0 -i 41 -a 0 -x {5.1 6.1 -1 ------- null}
r -t 0.0207322884873346 -s 6 -d 7 -p rtProtoDV -e 9 -c 0 -i 25 -a 0 -x {6.1 7.1 -1 ------- null}
+ -t 0.0207322884873346 -s 7 -d 6 -p rtProtoDV -e 9 -c 0 -i 42 -a 0 -x {7.1 6.1 -1 ------- null}
+ -t 0.0207322884873346 -s 7 -d 8 -p rtProtoDV -e 9 -c 0 -i 43 -a 0 -x {7.1 8.1 -1 ------- null}
r -t 0.0208729134873346 -s 8 -d 0 -p rtProtoDV -e 9 -c 0 -i 26 -a 0 -x {8.1 0.3 -1 ------- null}
+ -t 0.0208729134873346 -s 0 -d 1 -p rtProtoDV -e 9 -c 0 -i 44 -a 0 -x {0.3 1.3 -1 ------- null}
- -t 0.0208729134873346 -s 0 -d 1 -p rtProtoDV -e 9 -c 0 -i 44 -a 0 -x {0.3 1.3 -1 ------- null}
h -t 0.0208729134873346 -s 0 -d 1 -p rtProtoDV -e 9 -c 0 -i 44 -a 0 -x {0.3 1.3 -1 ------- null}
+ -t 0.0208729134873346 -s 0 -d 8 -p rtProtoDV -e 9 -c 0 -i 45 -a 0 -x {0.3 8.1 -1 ------- null}
- -t 0.0208729134873346 -s 0 -d 8 -p rtProtoDV -e 9 -c 0 -i 45 -a 0 -x {0.3 8.1 -1 ------- null}
h -t 0.0208729134873346 -s 0 -d 8 -p rtProtoDV -e 9 -c 0 -i 45 -a 0 -x {0.3 8.1 -1 ------- null}
r -t 0.0208729134873346 -s 8 -d 7 -p rtProtoDV -e 9 -c 0 -i 27 -a 0 -x {8.1 7.1 -1 ------- null}
- -t 0.0208729134873346 -s 7 -d 6 -p rtProtoDV -e 9 -c 0 -i 42 -a 0 -x {7.1 6.1 -1 ------- null}
h -t 0.0208729134873346 -s 7 -d 6 -p rtProtoDV -e 9 -c 0 -i 42 -a 0 -x {7.1 6.1 -1 ------- null}
- -t 0.0208729134873346 -s 7 -d 8 -p rtProtoDV -e 9 -c 0 -i 43 -a 0 -x {7.1 8.1 -1 ------- null}
h -t 0.0208729134873346 -s 7 -d 8 -p rtProtoDV -e 9 -c 0 -i 43 -a 0 -x {7.1 8.1 -1 ------- null}
r -t 0.0208729134873346 -s 1 -d 0 -p rtProtoDV -e 9 -c 0 -i 28 -a 0 -x {1.3 0.3 -1 ------- null}
r -t 0.0208729134873346 -s 1 -d 2 -p rtProtoDV -e 9 -c 0 -i 29 -a 0 -x {1.3 2.1 -1 ------- null}
+ -t 0.0208729134873346 -s 2 -d 1 -p rtProtoDV -e 9 -c 0 -i 46 -a 0 -x {2.1 1.3 -1 ------- null}
- -t 0.0208729134873346 -s 2 -d 1 -p rtProtoDV -e 9 -c 0 -i 46 -a 0 -x {2.1 1.3 -1 ------- null}
h -t 0.0208729134873346 -s 2 -d 1 -p rtProtoDV -e 9 -c 0 -i 46 -a 0 -x {2.1 1.3 -1 ------- null}
+ -t 0.0208729134873346 -s 2 -d 3 -p rtProtoDV -e 9 -c 0 -i 47 -a 0 -x {2.1 3.3 -1 ------- null}
- -t 0.0208729134873346 -s 2 -d 3 -p rtProtoDV -e 9 -c 0 -i 47 -a 0 -x {2.1 3.3 -1 ------- null}
h -t 0.0208729134873346 -s 2 -d 3 -p rtProtoDV -e 9 -c 0 -i 47 -a 0 -x {2.1 3.3 -1 ------- null}
r -t 0.0225242052185826 -s 0 -d 1 -p rtProtoDV -e 9 -c 0 -i 30 -a 0 -x {0.3 1.3 -1 ------- null}
r -t 0.0225242052185826 -s 0 -d 8 -p rtProtoDV -e 9 -c 0 -i 31 -a 0 -x {0.3 8.1 -1 ------- null}
+ -t 0.0225242052185826 -s 8 -d 0 -p rtProtoDV -e 9 -c 0 -i 48 -a 0 -x {8.1 0.3 -1 ------- null}
- -t 0.0225242052185826 -s 8 -d 0 -p rtProtoDV -e 9 -c 0 -i 48 -a 0 -x {8.1 0.3 -1 ------- null}
h -t 0.0225242052185826 -s 8 -d 0 -p rtProtoDV -e 9 -c 0 -i 48 -a 0 -x {8.1 0.3 -1 ------- null}
+ -t 0.0225242052185826 -s 8 -d 7 -p rtProtoDV -e 9 -c 0 -i 49 -a 0 -x {8.1 7.1 -1 ------- null}
- -t 0.0225242052185826 -s 8 -d 7 -p rtProtoDV -e 9 -c 0 -i 49 -a 0 -x {8.1 7.1 -1 ------- null}
h -t 0.0225242052185826 -s 8 -d 7 -p rtProtoDV -e 9 -c 0 -i 49 -a 0 -x {8.1 7.1 -1 ------- null}
r -t 0.0225242052185826 -s 2 -d 1 -p rtProtoDV -e 9 -c 0 -i 32 -a 0 -x {2.1 1.3 -1 ------- null}
+ -t 0.0225242052185826 -s 1 -d 0 -p rtProtoDV -e 9 -c 0 -i 50 -a 0 -x {1.3 0.3 -1 ------- null}
- -t 0.0225242052185826 -s 1 -d 0 -p rtProtoDV -e 9 -c 0 -i 50 -a 0 -x {1.3 0.3 -1 ------- null}
h -t 0.0225242052185826 -s 1 -d 0 -p rtProtoDV -e 9 -c 0 -i 50 -a 0 -x {1.3 0.3 -1 ------- null}
+ -t 0.0225242052185826 -s 1 -d 2 -p rtProtoDV -e 9 -c 0 -i 51 -a 0 -x {1.3 2.1 -1 ------- null}
- -t 0.0225242052185826 -s 1 -d 2 -p rtProtoDV -e 9 -c 0 -i 51 -a 0 -x {1.3 2.1 -1 ------- null}
h -t 0.0225242052185826 -s 1 -d 2 -p rtProtoDV -e 9 -c 0 -i 51 -a 0 -x {1.3 2.1 -1 ------- null}
r -t 0.0225242052185826 -s 2 -d 3 -p rtProtoDV -e 9 -c 0 -i 33 -a 0 -x {2.1 3.3 -1 ------- null}
r -t 0.0225242052185826 -s 4 -d 3 -p rtProtoDV -e 9 -c 0 -i 34 -a 0 -x {4.3 3.3 -1 ------- null}
+ -t 0.0225242052185826 -s 3 -d 2 -p rtProtoDV -e 9 -c 0 -i 52 -a 0 -x {3.3 2.1 -1 ------- null}
- -t 0.0225242052185826 -s 3 -d 2 -p rtProtoDV -e 9 -c 0 -i 52 -a 0 -x {3.3 2.1 -1 ------- null}
h -t 0.0225242052185826 -s 3 -d 2 -p rtProtoDV -e 9 -c 0 -i 52 -a 0 -x {3.3 2.1 -1 ------- null}
+ -t 0.0225242052185826 -s 3 -d 4 -p rtProtoDV -e 9 -c 0 -i 53 -a 0 -x {3.3 4.3 -1 ------- null}
- -t 0.0225242052185826 -s 3 -d 4 -p rtProtoDV -e 9 -c 0 -i 53 -a 0 -x {3.3 4.3 -1 ------- null}
h -t 0.0225242052185826 -s 3 -d 4 -p rtProtoDV -e 9 -c 0 -i 53 -a 0 -x {3.3 4.3 -1 ------- null}
r -t 0.0225242052185826 -s 4 -d 5 -p rtProtoDV -e 9 -c 0 -i 35 -a 0 -x {4.3 5.1 -1 ------- null}
+ -t 0.0225242052185826 -s 5 -d 4 -p rtProtoDV -e 9 -c 0 -i 54 -a 0 -x {5.1 4.3 -1 ------- null}
- -t 0.0225242052185826 -s 5 -d 4 -p rtProtoDV -e 9 -c 0 -i 54 -a 0 -x {5.1 4.3 -1 ------- null}
h -t 0.0225242052185826 -s 5 -d 4 -p rtProtoDV -e 9 -c 0 -i 54 -a 0 -x {5.1 4.3 -1 ------- null}
+ -t 0.0225242052185826 -s 5 -d 6 -p rtProtoDV -e 9 -c 0 -i 55 -a 0 -x {5.1 6.1 -1 ------- null}
- -t 0.0225242052185826 -s 5 -d 6 -p rtProtoDV -e 9 -c 0 -i 55 -a 0 -x {5.1 6.1 -1 ------- null}
h -t 0.0225242052185826 -s 5 -d 6 -p rtProtoDV -e 9 -c 0 -i 55 -a 0 -x {5.1 6.1 -1 ------- null}
r -t 0.0258729134873346 -s 7 -d 6 -p rtProtoDV -e 9 -c 0 -i 36 -a 0 -x {7.1 6.1 -1 ------- null}
+ -t 0.0258729134873346 -s 6 -d 5 -p rtProtoDV -e 9 -c 0 -i 56 -a 0 -x {6.1 5.1 -1 ------- null}
- -t 0.0258729134873346 -s 6 -d 5 -p rtProtoDV -e 9 -c 0 -i 56 -a 0 -x {6.1 5.1 -1 ------- null}
h -t 0.0258729134873346 -s 6 -d 5 -p rtProtoDV -e 9 -c 0 -i 56 -a 0 -x {6.1 5.1 -1 ------- null}
+ -t 0.0258729134873346 -s 6 -d 7 -p rtProtoDV -e 9 -c 0 -i 57 -a 0 -x {6.1 7.1 -1 ------- null}
- -t 0.0258729134873346 -s 6 -d 7 -p rtProtoDV -e 9 -c 0 -i 57 -a 0 -x {6.1 7.1 -1 ------- null}
h -t 0.0258729134873346 -s 6 -d 7 -p rtProtoDV -e 9 -c 0 -i 57 -a 0 -x {6.1 7.1 -1 ------- null}
r -t 0.0258729134873346 -s 7 -d 8 -p rtProtoDV -e 9 -c 0 -i 37 -a 0 -x {7.1 8.1 -1 ------- null}
r -t 0.0258729134873346 -s 4 -d 3 -p rtProtoDV -e 9 -c 0 -i 38 -a 0 -x {4.3 3.3 -1 ------- null}
r -t 0.0258729134873346 -s 4 -d 5 -p rtProtoDV -e 9 -c 0 -i 39 -a 0 -x {4.3 5.1 -1 ------- null}
r -t 0.0258729134873346 -s 5 -d 4 -p rtProtoDV -e 9 -c 0 -i 40 -a 0 -x {5.1 4.3 -1 ------- null}
+ -t 0.0258729134873346 -s 4 -d 3 -p rtProtoDV -e 9 -c 0 -i 58 -a 0 -x {4.3 3.3 -1 ------- null}
- -t 0.0258729134873346 -s 4 -d 3 -p rtProtoDV -e 9 -c 0 -i 58 -a 0 -x {4.3 3.3 -1 ------- null}
h -t 0.0258729134873346 -s 4 -d 3 -p rtProtoDV -e 9 -c 0 -i 58 -a 0 -x {4.3 3.3 -1 ------- null}
+ -t 0.0258729134873346 -s 4 -d 5 -p rtProtoDV -e 9 -c 0 -i 59 -a 0 -x {4.3 5.1 -1 ------- null}
- -t 0.0258729134873346 -s 4 -d 5 -p rtProtoDV -e 9 -c 0 -i 59 -a 0 -x {4.3 5.1 -1 ------- null}
h -t 0.0258729134873346 -s 4 -d 5 -p rtProtoDV -e 9 -c 0 -i 59 -a 0 -x {4.3 5.1 -1 ------- null}
r -t 0.0258729134873346 -s 5 -d 6 -p rtProtoDV -e 9 -c 0 -i 41 -a 0 -x {5.1 6.1 -1 ------- null}
+ -t 0.0258729134873346 -s 6 -d 5 -p rtProtoDV -e 9 -c 0 -i 60 -a 0 -x {6.1 5.1 -1 ------- null}
+ -t 0.0258729134873346 -s 6 -d 7 -p rtProtoDV -e 9 -c 0 -i 61 -a 0 -x {6.1 7.1 -1 ------- null}
r -t 0.0260135384873346 -s 0 -d 1 -p rtProtoDV -e 9 -c 0 -i 44 -a 0 -x {0.3 1.3 -1 ------- null}
+ -t 0.0260135384873346 -s 1 -d 0 -p rtProtoDV -e 9 -c 0 -i 62 -a 0 -x {1.3 0.3 -1 ------- null}
- -t 0.0260135384873346 -s 1 -d 0 -p rtProtoDV -e 9 -c 0 -i 62 -a 0 -x {1.3 0.3 -1 ------- null}
h -t 0.0260135384873346 -s 1 -d 0 -p rtProtoDV -e 9 -c 0 -i 62 -a 0 -x {1.3 0.3 -1 ------- null}
+ -t 0.0260135384873346 -s 1 -d 2 -p rtProtoDV -e 9 -c 0 -i 63 -a 0 -x {1.3 2.1 -1 ------- null}
- -t 0.0260135384873346 -s 1 -d 2 -p rtProtoDV -e 9 -c 0 -i 63 -a 0 -x {1.3 2.1 -1 ------- null}
h -t 0.0260135384873346 -s 1 -d 2 -p rtProtoDV -e 9 -c 0 -i 63 -a 0 -x {1.3 2.1 -1 ------- null}
r -t 0.0260135384873346 -s 0 -d 8 -p rtProtoDV -e 9 -c 0 -i 45 -a 0 -x {0.3 8.1 -1 ------- null}
r -t 0.0260135384873346 -s 7 -d 6 -p rtProtoDV -e 9 -c 0 -i 42 -a 0 -x {7.1 6.1 -1 ------- null}
r -t 0.0260135384873346 -s 7 -d 8 -p rtProtoDV -e 9 -c 0 -i 43 -a 0 -x {7.1 8.1 -1 ------- null}
+ -t 0.0260135384873346 -s 8 -d 0 -p rtProtoDV -e 9 -c 0 -i 64 -a 0 -x {8.1 0.3 -1 ------- null}
- -t 0.0260135384873346 -s 8 -d 0 -p rtProtoDV -e 9 -c 0 -i 64 -a 0 -x {8.1 0.3 -1 ------- null}
h -t 0.0260135384873346 -s 8 -d 0 -p rtProtoDV -e 9 -c 0 -i 64 -a 0 -x {8.1 0.3 -1 ------- null}
+ -t 0.0260135384873346 -s 8 -d 7 -p rtProtoDV -e 9 -c 0 -i 65 -a 0 -x {8.1 7.1 -1 ------- null}
- -t 0.0260135384873346 -s 8 -d 7 -p rtProtoDV -e 9 -c 0 -i 65 -a 0 -x {8.1 7.1 -1 ------- null}
h -t 0.0260135384873346 -s 8 -d 7 -p rtProtoDV -e 9 -c 0 -i 65 -a 0 -x {8.1 7.1 -1 ------- null}
- -t 0.0260135384873346 -s 6 -d 5 -p rtProtoDV -e 9 -c 0 -i 60 -a 0 -x {6.1 5.1 -1 ------- null}
h -t 0.0260135384873346 -s 6 -d 5 -p rtProtoDV -e 9 -c 0 -i 60 -a 0 -x {6.1 5.1 -1 ------- null}
- -t 0.0260135384873346 -s 6 -d 7 -p rtProtoDV -e 9 -c 0 -i 61 -a 0 -x {6.1 7.1 -1 ------- null}
h -t 0.0260135384873346 -s 6 -d 7 -p rtProtoDV -e 9 -c 0 -i 61 -a 0 -x {6.1 7.1 -1 ------- null}
r -t 0.0260135384873346 -s 2 -d 1 -p rtProtoDV -e 9 -c 0 -i 46 -a 0 -x {2.1 1.3 -1 ------- null}
r -t 0.0260135384873346 -s 2 -d 3 -p rtProtoDV -e 9 -c 0 -i 47 -a 0 -x {2.1 3.3 -1 ------- null}
+ -t 0.0260135384873346 -s 3 -d 2 -p rtProtoDV -e 9 -c 0 -i 66 -a 0 -x {3.3 2.1 -1 ------- null}
- -t 0.0260135384873346 -s 3 -d 2 -p rtProtoDV -e 9 -c 0 -i 66 -a 0 -x {3.3 2.1 -1 ------- null}
h -t 0.0260135384873346 -s 3 -d 2 -p rtProtoDV -e 9 -c 0 -i 66 -a 0 -x {3.3 2.1 -1 ------- null}
+ -t 0.0260135384873346 -s 3 -d 4 -p rtProtoDV -e 9 -c 0 -i 67 -a 0 -x {3.3 4.3 -1 ------- null}
- -t 0.0260135384873346 -s 3 -d 4 -p rtProtoDV -e 9 -c 0 -i 67 -a 0 -x {3.3 4.3 -1 ------- null}
h -t 0.0260135384873346 -s 3 -d 4 -p rtProtoDV -e 9 -c 0 -i 67 -a 0 -x {3.3 4.3 -1 ------- null}
r -t 0.0276648302185826 -s 8 -d 0 -p rtProtoDV -e 9 -c 0 -i 48 -a 0 -x {8.1 0.3 -1 ------- null}
r -t 0.0276648302185826 -s 8 -d 7 -p rtProtoDV -e 9 -c 0 -i 49 -a 0 -x {8.1 7.1 -1 ------- null}
+ -t 0.0276648302185826 -s 7 -d 6 -p rtProtoDV -e 9 -c 0 -i 68 -a 0 -x {7.1 6.1 -1 ------- null}
- -t 0.0276648302185826 -s 7 -d 6 -p rtProtoDV -e 9 -c 0 -i 68 -a 0 -x {7.1 6.1 -1 ------- null}
h -t 0.0276648302185826 -s 7 -d 6 -p rtProtoDV -e 9 -c 0 -i 68 -a 0 -x {7.1 6.1 -1 ------- null}
+ -t 0.0276648302185826 -s 7 -d 8 -p rtProtoDV -e 9 -c 0 -i 69 -a 0 -x {7.1 8.1 -1 ------- null}
- -t 0.0276648302185826 -s 7 -d 8 -p rtProtoDV -e 9 -c 0 -i 69 -a 0 -x {7.1 8.1 -1 ------- null}
h -t 0.0276648302185826 -s 7 -d 8 -p rtProtoDV -e 9 -c 0 -i 69 -a 0 -x {7.1 8.1 -1 ------- null}
r -t 0.0276648302185826 -s 1 -d 0 -p rtProtoDV -e 9 -c 0 -i 50 -a 0 -x {1.3 0.3 -1 ------- null}
+ -t 0.0276648302185826 -s 0 -d 1 -p rtProtoDV -e 9 -c 0 -i 70 -a 0 -x {0.3 1.3 -1 ------- null}
- -t 0.0276648302185826 -s 0 -d 1 -p rtProtoDV -e 9 -c 0 -i 70 -a 0 -x {0.3 1.3 -1 ------- null}
h -t 0.0276648302185826 -s 0 -d 1 -p rtProtoDV -e 9 -c 0 -i 70 -a 0 -x {0.3 1.3 -1 ------- null}
+ -t 0.0276648302185826 -s 0 -d 8 -p rtProtoDV -e 9 -c 0 -i 71 -a 0 -x {0.3 8.1 -1 ------- null}
- -t 0.0276648302185826 -s 0 -d 8 -p rtProtoDV -e 9 -c 0 -i 71 -a 0 -x {0.3 8.1 -1 ------- null}
h -t 0.0276648302185826 -s 0 -d 8 -p rtProtoDV -e 9 -c 0 -i 71 -a 0 -x {0.3 8.1 -1 ------- null}
r -t 0.0276648302185826 -s 1 -d 2 -p rtProtoDV -e 9 -c 0 -i 51 -a 0 -x {1.3 2.1 -1 ------- null}
r -t 0.0276648302185826 -s 3 -d 2 -p rtProtoDV -e 9 -c 0 -i 52 -a 0 -x {3.3 2.1 -1 ------- null}
+ -t 0.0276648302185826 -s 2 -d 1 -p rtProtoDV -e 9 -c 0 -i 72 -a 0 -x {2.1 1.3 -1 ------- null}
- -t 0.0276648302185826 -s 2 -d 1 -p rtProtoDV -e 9 -c 0 -i 72 -a 0 -x {2.1 1.3 -1 ------- null}
h -t 0.0276648302185826 -s 2 -d 1 -p rtProtoDV -e 9 -c 0 -i 72 -a 0 -x {2.1 1.3 -1 ------- null}
+ -t 0.0276648302185826 -s 2 -d 3 -p rtProtoDV -e 9 -c 0 -i 73 -a 0 -x {2.1 3.3 -1 ------- null}
- -t 0.0276648302185826 -s 2 -d 3 -p rtProtoDV -e 9 -c 0 -i 73 -a 0 -x {2.1 3.3 -1 ------- null}
h -t 0.0276648302185826 -s 2 -d 3 -p rtProtoDV -e 9 -c 0 -i 73 -a 0 -x {2.1 3.3 -1 ------- null}
r -t 0.0276648302185826 -s 3 -d 4 -p rtProtoDV -e 9 -c 0 -i 53 -a 0 -x {3.3 4.3 -1 ------- null}
r -t 0.0276648302185826 -s 5 -d 4 -p rtProtoDV -e 9 -c 0 -i 54 -a 0 -x {5.1 4.3 -1 ------- null}
r -t 0.0276648302185826 -s 5 -d 6 -p rtProtoDV -e 9 -c 0 -i 55 -a 0 -x {5.1 6.1 -1 ------- null}
+ -t 0.0276648302185826 -s 6 -d 5 -p rtProtoDV -e 9 -c 0 -i 74 -a 0 -x {6.1 5.1 -1 ------- null}
- -t 0.0276648302185826 -s 6 -d 5 -p rtProtoDV -e 9 -c 0 -i 74 -a 0 -x {6.1 5.1 -1 ------- null}
h -t 0.0276648302185826 -s 6 -d 5 -p rtProtoDV -e 9 -c 0 -i 74 -a 0 -x {6.1 5.1 -1 ------- null}
+ -t 0.0276648302185826 -s 6 -d 7 -p rtProtoDV -e 9 -c 0 -i 75 -a 0 -x {6.1 7.1 -1 ------- null}
- -t 0.0276648302185826 -s 6 -d 7 -p rtProtoDV -e 9 -c 0 -i 75 -a 0 -x {6.1 7.1 -1 ------- null}
h -t 0.0276648302185826 -s 6 -d 7 -p rtProtoDV -e 9 -c 0 -i 75 -a 0 -x {6.1 7.1 -1 ------- null}
r -t 0.0310135384873346 -s 6 -d 5 -p rtProtoDV -e 9 -c 0 -i 56 -a 0 -x {6.1 5.1 -1 ------- null}
r -t 0.0310135384873346 -s 6 -d 7 -p rtProtoDV -e 9 -c 0 -i 57 -a 0 -x {6.1 7.1 -1 ------- null}
r -t 0.0310135384873346 -s 4 -d 3 -p rtProtoDV -e 9 -c 0 -i 58 -a 0 -x {4.3 3.3 -1 ------- null}
+ -t 0.0310135384873346 -s 3 -d 2 -p rtProtoDV -e 9 -c 0 -i 76 -a 0 -x {3.3 2.1 -1 ------- null}
- -t 0.0310135384873346 -s 3 -d 2 -p rtProtoDV -e 9 -c 0 -i 76 -a 0 -x {3.3 2.1 -1 ------- null}
h -t 0.0310135384873346 -s 3 -d 2 -p rtProtoDV -e 9 -c 0 -i 76 -a 0 -x {3.3 2.1 -1 ------- null}
+ -t 0.0310135384873346 -s 3 -d 4 -p rtProtoDV -e 9 -c 0 -i 77 -a 0 -x {3.3 4.3 -1 ------- null}
- -t 0.0310135384873346 -s 3 -d 4 -p rtProtoDV -e 9 -c 0 -i 77 -a 0 -x {3.3 4.3 -1 ------- null}
h -t 0.0310135384873346 -s 3 -d 4 -p rtProtoDV -e 9 -c 0 -i 77 -a 0 -x {3.3 4.3 -1 ------- null}
r -t 0.0310135384873346 -s 4 -d 5 -p rtProtoDV -e 9 -c 0 -i 59 -a 0 -x {4.3 5.1 -1 ------- null}
r -t 0.0311541634873346 -s 1 -d 0 -p rtProtoDV -e 9 -c 0 -i 62 -a 0 -x {1.3 0.3 -1 ------- null}